<?xml version="1.0"?>
<!--Shaheen-->
<VTKFile type="UnstructuredGrid" version="0.1" byte_order="LittleEndian">
  <UnstructuredGrid>
    <Piece NumberOfPoints="791" NumberOfCells="973">
      <Points>
        <DataArray type="Float32" NumberOfComponents="3" format="ascii">
-0.190211 -0.0618034 -0.866203 -0.17591 0.0347644 -0.761951 -0.166717 -0.0910144 -0.722131 0 -0.0768927 -0.886453 0.190211 -0.0618034 -0.866203 0.166717 -0.0910144 -0.722131 0.17591 0.0347644 -0.761951 -0.190211 0.0618034 -0.866203 -0.181592 0.2 -0.786562 -0.117557 0.161803 -0.847614 0 0.0768927 -0.886453 0.181592 0.2 -0.786562 0.190211 0.0618034 -0.866203 0.117557 0.161803 -0.847614 -0.181592 -0.2 -0.786562 -0.117557 -0.161803 -0.847614 0.181592 -0.2 -0.786562 0.117557 -0.161803 -0.847614 -0.151842 0.1125 -0.6577 0 0.2 -0.792573 0.151842 0.1125 -0.6577 -0.151842 0.225 -0.6577 0.151842 0.225 -0.6577 0.151842 -0.225 -0.6577 0 -0.2 -0.792573 -0.151842 -0.225 -0.6577 0 -7.38343e-17 -0.9 0.888988 -0.0695288 0.4 0.781994 0.0347644 0.4 0.888988 0.0695288 0.4 0.888988 -0.0695288 2.2226e-15 0.781994 0.0347644 2.2357e-15 0.888988 0.0695288 2.2226e-15 0.741126 -0.0910144 0.4 0.741126 -0.0910144 2.24071e-15 0.807252 -0.182029 0.4 0.807252 -0.182029 2.23261e-15 0.568006 0.0347644 0.4 0.542748 0.182029 0.4 0.675 0.1125 0.4 0.568006 0.0347644 2.26191e-15 0.542748 0.182029 2.265e-15 0.675 0.1125 2.2488e-15 0.461012 0.0695288 0.4 0.461012 0.0695288 2.27501e-15 0.675 0 0.4 0.675 0 2.2488e-15 0.608874 -0.0910144 0.4 0.608874 -0.0910144 2.2569e-15 0.675 0.225 0.4 0.675 0.225 2.2488e-15 0.461012 -0.0695288 0.4 0.461012 -0.0695288 2.27501e-15 0.542748 -0.182029 0.4 0.542748 -0.182029 2.265e-15 0.675 -0.225 0.4 0.675 -0.225 2.2488e-15 0.807252 0.182029 0.4 0.807252 0.182029 2.23261e-15 0.888988 -0.0695288 0.8 0.781994 0.0347644 0.8 0.888988 0.0695288 0.8 0.741126 -0.0910144 0.8 0.807252 -0.182029 0.8 0.568006 0.0347644 0.8 0.542748 0.182029 0.8 0.675 0.1125 0.8 0.461012 0.0695288 0.8 0.675 0 0.8 0.608874 -0.0910144 0.8 0.675 0.225 0.8 0.461012 -0.0695288 0.8 0.542748 -0.182029 0.8 0.675 -0.225 0.8 0.807252 0.182029 0.8 0.888988 -0.0695288 1.2 0.781994 0.0347644 1.2 0.888988 0.0695288 1.2 0.741126 -0.0910144 1.2 0.807252 -0.182029 1.2 0.568006 0.0347644 1.2 0.542748 0.182029 1.2 0.675 0.1125 1.2 0.461012 0.0695288 1.2 0.675 0 1.2 0.608874 -0.0910144 1.2 0.675 0.225 1.2 0.461012 -0.0695288 1.2 0.542748 -0.182029 1.2 0.675 -0.225 1.2 0.807252 0.182029 1.2 0.888988 -0.0695288 1.6 0.781994 0.0347644 1.6 0.888988 0.0695288 1.6 0.741126 -0.0910144 1.6 0.807252 -0.182029 1.6 0.568006 0.0347644 1.6 0.542748 0.182029 1.6 0.675 0.1125 1.6 0.461012 0.0695288 1.6 0.675 0 1.6 0.608874 -0.0910144 1.6 0.675 0.225 1.6 0.461012 -0.0695288 1.6 0.542748 -0.182029 1.6 0.675 -0.225 1.6 0.807252 0.182029 1.6 0.888988 -0.0695288 2 0.781994 0.0347644 2 0.888988 0.0695288 2 0.741126 -0.0910144 2 0.807252 -0.182029 2 0.568006 0.0347644 2 0.542748 0.182029 2 0.675 0.1125 2 0.461012 0.0695288 2 0.675 0 2 0.608874 -0.0910144 2 0.675 0.225 2 0.461012 -0.0695288 2 0.542748 -0.182029 2 0.675 -0.225 2 0.807252 0.182029 2 0.888988 -0.0695288 2.4 0.781994 0.0347644 2.4 0.888988 0.0695288 2.4 0.741126 -0.0910144 2.4 0.807252 -0.182029 2.4 0.568006 0.0347644 2.4 0.542748 0.182029 2.4 0.675 0.1125 2.4 0.461012 0.0695288 2.4 0.675 0 2.4 0.608874 -0.0910144 2.4 0.675 0.225 2.4 0.461012 -0.0695288 2.4 0.542748 -0.182029 2.4 0.675 -0.225 2.4 0.807252 0.182029 2.4 0.888988 -0.0695288 2.8 0.781994 0.0347644 2.8 0.888988 0.0695288 2.8 0.741126 -0.0910144 2.8 0.807252 -0.182029 2.8 0.568006 0.0347644 2.8 0.542748 0.182029 2.8 0.675 0.1125 2.8 0.461012 0.0695288 2.8 0.675 0 2.8 0.608874 -0.0910144 2.8 0.675 0.225 2.8 0.461012 -0.0695288 2.8 0.542748 -0.182029 2.8 0.675 -0.225 2.8 0.807252 0.182029 2.8 0.888988 -0.0695288 3.2 0.781994 0.0347644 3.2 0.888988 0.0695288 3.2 0.741126 -0.0910144 3.2 0.807252 -0.182029 3.2 0.568006 0.0347644 3.2 0.542748 0.182029 3.2 0.675 0.1125 3.2 0.461012 0.0695288 3.2 0.675 0 3.2 0.608874 -0.0910144 3.2 0.675 0.225 3.2 0.461012 -0.0695288 3.2 0.542748 -0.182029 3.2 0.675 -0.225 3.2 0.807252 0.182029 3.2 0.888988 -0.0695288 3.6 0.781994 0.0347644 3.6 0.888988 0.0695288 3.6 0.741126 -0.0910144 3.6 0.807252 -0.182029 3.6 0.568006 0.0347644 3.6 0.542748 0.182029 3.6 0.675 0.1125 3.6 0.461012 0.0695288 3.6 0.675 0 3.6 0.608874 -0.0910144 3.6 0.675 0.225 3.6 0.461012 -0.0695288 3.6 0.542748 -0.182029 3.6 0.675 -0.225 3.6 0.807252 0.182029 3.6 0.888988 -0.0695288 4 0.781994 0.0347644 4 0.888988 0.0695288 4 0.741126 -0.0910144 4 0.807252 -0.182029 4 0.568006 0.0347644 4 0.542748 0.182029 4 0.675 0.1125 4 0.461012 0.0695288 4 0.675 0 4 0.608874 -0.0910144 4 0.675 0.225 4 0.461012 -0.0695288 4 0.542748 -0.182029 4 0.675 -0.225 4 0.807252 0.182029 4 0.888988 -0.0695288 4.4 0.781994 0.0347644 4.4 0.888988 0.0695288 4.4 0.741126 -0.0910144 4.4 0.807252 -0.182029 4.4 0.568006 0.0347644 4.4 0.542748 0.182029 4.4 0.675 0.1125 4.4 0.461012 0.0695288 4.4 0.675 0 4.4 0.608874 -0.0910144 4.4 0.675 0.225 4.4 0.461012 -0.0695288 4.4 0.542748 -0.182029 4.4 0.675 -0.225 4.4 0.807252 0.182029 4.4 0.888988 -0.0695288 4.8 0.781994 0.0347644 4.8 0.888988 0.0695288 4.8 0.741126 -0.0910144 4.8 0.807252 -0.182029 4.8 0.568006 0.0347644 4.8 0.542748 0.182029 4.8 0.675 0.1125 4.8 0.461012 0.0695288 4.8 0.675 0 4.8 0.608874 -0.0910144 4.8 0.675 0.225 4.8 0.461012 -0.0695288 4.8 0.542748 -0.182029 4.8 0.675 -0.225 4.8 0.807252 0.182029 4.8 0.888988 -0.0695288 5.2 0.781994 0.0347644 5.2 0.888988 0.0695288 5.2 0.741126 -0.0910144 5.2 0.807252 -0.182029 5.2 0.568006 0.0347644 5.2 0.542748 0.182029 5.2 0.675 0.1125 5.2 0.461012 0.0695288 5.2 0.675 0 5.2 0.608874 -0.0910144 5.2 0.675 0.225 5.2 0.461012 -0.0695288 5.2 0.542748 -0.182029 5.2 0.675 -0.225 5.2 0.807252 0.182029 5.2 0.888988 -0.0695288 5.6 0.781994 0.0347644 5.6 0.888988 0.0695288 5.6 0.741126 -0.0910144 5.6 0.807252 -0.182029 5.6 0.568006 0.0347644 5.6 0.542748 0.182029 5.6 0.675 0.1125 5.6 0.461012 0.0695288 5.6 0.675 0 5.6 0.608874 -0.0910144 5.6 0.675 0.225 5.6 0.461012 -0.0695288 5.6 0.542748 -0.182029 5.6 0.675 -0.225 5.6 0.807252 0.182029 5.6 0.888988 -0.0695288 6 0.781994 0.0347644 6 0.888988 0.0695288 6 0.741126 -0.0910144 6 0.807252 -0.182029 6 0.568006 0.0347644 6 0.542748 0.182029 6 0.675 0.1125 6 0.461012 0.0695288 6 0.675 0 6 0.608874 -0.0910144 6 0.675 0.225 6 0.461012 -0.0695288 6 0.542748 -0.182029 6 0.675 -0.225 6 0.807252 0.182029 6 0.888988 -0.0695288 6.4 0.781994 0.0347644 6.4 0.888988 0.0695288 6.4 0.741126 -0.0910144 6.4 0.807252 -0.182029 6.4 0.568006 0.0347644 6.4 0.542748 0.182029 6.4 0.675 0.1125 6.4 0.461012 0.0695288 6.4 0.675 0 6.4 0.608874 -0.0910144 6.4 0.675 0.225 6.4 0.461012 -0.0695288 6.4 0.542748 -0.182029 6.4 0.675 -0.225 6.4 0.807252 0.182029 6.4 0.888988 -0.0695288 6.8 0.781994 0.0347644 6.8 0.888988 0.0695288 6.8 0.741126 -0.0910144 6.8 0.807252 -0.182029 6.8 0.568006 0.0347644 6.8 0.542748 0.182029 6.8 0.675 0.1125 6.8 0.461012 0.0695288 6.8 0.675 0 6.8 0.608874 -0.0910144 6.8 0.675 0.225 6.8 0.461012 -0.0695288 6.8 0.542748 -0.182029 6.8 0.675 -0.225 6.8 0.807252 0.182029 6.8 0.888988 -0.0695288 7.2 0.781994 0.0347644 7.2 0.888988 0.0695288 7.2 0.741126 -0.0910144 7.2 0.807252 -0.182029 7.2 0.568006 0.0347644 7.2 0.542748 0.182029 7.2 0.675 0.1125 7.2 0.461012 0.0695288 7.2 0.675 0 7.2 0.608874 -0.0910144 7.2 0.675 0.225 7.2 0.461012 -0.0695288 7.2 0.542748 -0.182029 7.2 0.675 -0.225 7.2 0.807252 0.182029 7.2 0.888988 -0.0695288 7.6 0.781994 0.0347644 7.6 0.888988 0.0695288 7.6 0.741126 -0.0910144 7.6 0.807252 -0.182029 7.6 0.568006 0.0347644 7.6 0.542748 0.182029 7.6 0.675 0.1125 7.6 0.461012 0.0695288 7.6 0.675 0 7.6 0.608874 -0.0910144 7.6 0.675 0.225 7.6 0.461012 -0.0695288 7.6 0.542748 -0.182029 7.6 0.675 -0.225 7.6 0.807252 0.182029 7.6 0.695729 -0.0695288 -0.553408 0.611995 0.0347644 -0.486803 0.695729 0.0695288 -0.553408 0.580011 -0.0910144 -0.461362 0.631762 -0.182029 -0.502526 0.444526 0.0347644 -0.353592 0.424759 0.182029 -0.337869 0.528261 0.1125 -0.420197 0.360792 0.0695288 -0.286987 0.528261 0 -0.420197 0.47651 -0.0910144 -0.379033 0.528261 0.225 -0.420197 0.360792 -0.0695288 -0.286987 0.424759 -0.182029 -0.337869 0.528261 -0.225 -0.420197 0.631762 0.182029 -0.502526 0.127774 0.0347644 -0.553448 0.122092 0.182029 -0.528838 0.103705 0.0695288 -0.449197 0.151842 0 -0.6577 0.136967 -0.0910144 -0.593269 0.103705 -0.0695288 -0.449197 0.122092 -0.182029 -0.528838 -0.888988 -0.0695288 2.2226e-15 -0.781994 0.0347644 2.2357e-15 -0.888988 0.0695288 2.2226e-15 -0.888988 -0.0695288 0.4 -0.781994 0.0347644 0.4 -0.888988 0.0695288 0.4 -0.741126 -0.0910144 2.24071e-15 -0.741126 -0.0910144 0.4 -0.807252 -0.182029 2.23261e-15 -0.807252 -0.182029 0.4 -0.568006 0.0347644 2.26191e-15 -0.542748 0.182029 2.265e-15 -0.675 0.1125 2.2488e-15 -0.568006 0.0347644 0.4 -0.542748 0.182029 0.4 -0.675 0.1125 0.4 -0.461012 0.0695288 2.27501e-15 -0.461012 0.0695288 0.4 -0.675 0 2.2488e-15 -0.675 0 0.4 -0.608874 -0.0910144 2.2569e-15 -0.608874 -0.0910144 0.4 -0.675 0.225 2.2488e-15 -0.675 0.225 0.4 -0.461012 -0.0695288 2.27501e-15 -0.461012 -0.0695288 0.4 -0.542748 -0.182029 2.265e-15 -0.542748 -0.182029 0.4 -0.675 -0.225 2.2488e-15 -0.675 -0.225 0.4 -0.807252 0.182029 2.23261e-15 -0.807252 0.182029 0.4 -0.888988 -0.0695288 0.8 -0.781994 0.0347644 0.8 -0.888988 0.0695288 0.8 -0.741126 -0.0910144 0.8 -0.807252 -0.182029 0.8 -0.568006 0.0347644 0.8 -0.542748 0.182029 0.8 -0.675 0.1125 0.8 -0.461012 0.0695288 0.8 -0.675 0 0.8 -0.608874 -0.0910144 0.8 -0.675 0.225 0.8 -0.461012 -0.0695288 0.8 -0.542748 -0.182029 0.8 -0.675 -0.225 0.8 -0.807252 0.182029 0.8 -0.888988 -0.0695288 1.2 -0.781994 0.0347644 1.2 -0.888988 0.0695288 1.2 -0.741126 -0.0910144 1.2 -0.807252 -0.182029 1.2 -0.568006 0.0347644 1.2 -0.542748 0.182029 1.2 -0.675 0.1125 1.2 -0.461012 0.0695288 1.2 -0.675 0 1.2 -0.608874 -0.0910144 1.2 -0.675 0.225 1.2 -0.461012 -0.0695288 1.2 -0.542748 -0.182029 1.2 -0.675 -0.225 1.2 -0.807252 0.182029 1.2 -0.888988 -0.0695288 1.6 -0.78199
[...]
      <PointData>
        <DataArray type="Float32" Name="displacement" NumberOfComponents="3" format="ascii">
-7.35917e-06 -0.0893816 -0.00469872 3.79724e-05 -0.0974292 0.00269276 -5.79405e-05 -0.100592 -0.00713865 4.30713e-06 -0.0880451 -0.00578378 1.58249e-05 -0.0893817 -0.00469989 6.78938e-05 -0.100594 -0.00713955 -2.84132e-05 -0.0974282 0.00269052 1.90015e-05 -0.0893969 0.00469926 2.6376e-05 -0.095598 0.0157832 4.30712e-05 -0.0909302 0.0123183 4.24048e-06 -0.0880674 0.00576671 -1.69179e-05 -0.0955975 0.0157822 -1.01146e-05 -0.0893967 0.00469731 -3.41683e-05 -0.0909305 0.0123179 -1.9947e-05 -0.0956182 -0.0157753 -4.2635e-05 -0.0909348 -0.0123228 2.9128e-05 -0.0956195 -0.0157765 5.13142e-05 -0.0909352 -0.0123235 7.15349e-05 -0.105808 0.00894002 4.69334e-06 -0.0949347 0.015422 -6.08816e-05 -0.105808 0.00893955 6.89534e-05 -0.10589 0.0179207 -5.84057e-05 -0.10589 0.0179202 7.97533e-05 -0.105882 -0.0179384 4.46097e-06 -0.0949635 -0.0154485 -6.98544e-05 -0.10588 -0.017938 4.25132e-06 -0.0870641 8.9486e-06 0.000372122 -0.202114 -0.00699302 -0.000194607 -0.202668 0.00350743 -0.000397962 -0.202112 0.00701355 0.000380803 -0.162704 -0.00667027 -0.000188425 -0.163284 0.00335048 -0.000392179 -0.1627 0.0066875 0.000453302 -0.20289 -0.00915464 0.00045908 -0.16351 -0.00874345 0.000954454 -0.202596 -0.0183254 0.000952254 -0.163195 -0.0174778 -0.00017084 -0.203709 0.00350508 -0.000835724 -0.203879 0.0183396 -0.000564464 -0.203226 0.0113315 -0.00015912 -0.164334 0.00333368 -0.000795147 -0.164523 0.0174342 -0.000549802 -0.163855 0.0108121 -0.000309169 -0.204191 0.00700833 -0.000281435 -0.164818 0.00664595 -1.22133e-05 -0.203203 6.02577e-06 -5.71706e-06 -0.163831 5.7477e-06 0.000415029 -0.203533 -0.00915966 0.000411712 -0.164164 -0.00872263 -0.00111712 -0.203291 0.0226665 -0.00109044 -0.163922 0.0216024 0.000285291 -0.204193 -0.00700329 0.000274452 -0.16482 -0.00664188 0.000809365 -0.203879 -0.0183337 0.000780686 -0.164526 -0.0174258 0.00109248 -0.203289 -0.0226533 0.0010794 -0.16392 -0.0215926 -0.000977084 -0.202596 0.0183402 -0.000960543 -0.163197 0.0174991 0.000360823 -0.243312 -0.00729393 -0.000200835 -0.243868 0.0036595 -0.000401194 -0.24331 0.00731395 0.000443134 -0.24409 -0.00955266 0.000936447 -0.243789 -0.0191144 -0.000177857 -0.244914 0.00365542 -0.000841119 -0.245082 0.019127 -0.000568536 -0.244426 0.0118226 -0.000316745 -0.245403 0.00730665 -1.96565e-05 -0.244405 5.95064e-06 0.000405918 -0.244736 -0.00955497 -0.00111708 -0.244485 0.0236444 0.000278662 -0.245404 -0.00730248 0.000800107 -0.245083 -0.0191207 0.00107784 -0.244484 -0.0236316 -0.00097406 -0.243789 0.0191308 0.000349197 -0.286175 -0.00756868 -0.000207156 -0.286727 0.00379658 -0.000404568 -0.286173 0.00758914 0.000433821 -0.286946 -0.00991139 0.000923181 -0.286644 -0.0198336 -0.000186792 -0.287772 0.00379252 -0.000856909 -0.287936 0.0198443 -0.000576702 -0.287281 0.0122661 -0.00032907 -0.288263 0.00758066 -2.71872e-05 -0.287262 5.97162e-06 0.000400875 -0.287592 -0.00991397 -0.00112639 -0.287334 0.0245318 0.0002756 -0.288265 -0.00757665 0.000800955 -0.287936 -0.0198382 0.00107202 -0.287333 -0.024519 -0.000975951 -0.286644 0.0198498 0.000337754 -0.330534 -0.00781551 -0.000213984 -0.331084 0.00392024 -0.000408571 -0.330533 0.00783613 0.000424503 -0.331301 -0.0102349 0.000909123 -0.330996 -0.02048 -0.000195598 -0.332129 0.003916 -0.00087053 -0.332288 0.0204913 -0.000584499 -0.331635 0.0126659 -0.000340622 -0.332623 0.00782776 -3.49649e-05 -0.331617 5.96563e-06 0.000394753 -0.331947 -0.0102374 -0.00113397 -0.331682 0.0253313 0.000271561 -0.332625 -0.00782397 0.000799194 -0.332289 -0.0204853 0.00106405 -0.331681 -0.0253185 -0.000977646 -0.330996 0.0204965 0.00032611 -0.376238 -0.00803615 -0.000220913 -0.376785 0.00403065 -0.000412766 -0.376237 0.00805696 0.00041486 -0.377 -0.0105238 0.000895106 -0.376693 -0.0210579 -0.00020459 -0.37783 0.00402635 -0.000884539 -0.377985 0.0210691 -0.000592476 -0.377332 0.0130232 -0.000352394 -0.378327 0.00804834 -4.29335e-05 -0.377317 5.96764e-06 0.000388451 -0.377646 -0.0105265 -0.00114203 -0.377375 0.0260456 0.000267287 -0.378329 -0.00804477 0.000797419 -0.377985 -0.0210632 0.00105618 -0.377374 -0.0260328 -0.000979714 -0.376693 0.0210744 0.000314458 -0.423137 -0.00823132 -0.000228093 -0.42368 0.00412836 -0.000417307 -0.423136 0.0082523 0.000405169 -0.423894 -0.0107795 0.000881144 -0.423585 -0.021569 -0.000213727 -0.424726 0.00412396 -0.000898443 -0.424877 0.0215803 -0.000600659 -0.424225 0.0133392 -0.000364182 -0.425226 0.0082435 -5.1077e-05 -0.424212 5.9672e-06 0.000381923 -0.42454 -0.0107822 -0.00115023 -0.424263 0.0266774 0.000262698 -0.425228 -0.00824011 0.000795187 -0.424878 -0.0215744 0.00104809 -0.424262 -0.0266647 -0.000982192 -0.423585 0.0215857 0.000302793 -0.471086 -0.00840203 -0.000235459 -0.471627 0.00421382 -0.000422146 -0.471085 0.00842316 0.000395372 -0.471839 -0.0110031 0.000867272 -0.471529 -0.022016 -0.000222971 -0.472673 0.00420935 -0.000912263 -0.472821 0.0220273 -0.000608983 -0.472169 0.0136156 -0.000375969 -0.473176 0.00841421 -5.93746e-05 -0.472158 5.96748e-06 0.000375166 -0.472485 -0.0110059 -0.00115859 -0.472202 0.0272301 0.000257802 -0.473177 -0.00841098 0.000792557 -0.472821 -0.0220216 0.00103985 -0.472201 -0.0272174 -0.00098506 -0.471529 0.0220329 0.000291162 -0.519949 -0.00854942 -0.000243006 -0.520488 0.00428761 -0.000427292 -0.519949 0.00857067 0.000385518 -0.520698 -0.0111962 0.00085354 -0.520386 -0.022402 -0.000232303 -0.521533 0.00428307 -0.000925941 -0.521678 0.0224133 -0.000617441 -0.521027 0.0138543 -0.000387718 -0.522039 0.00856158 -6.78064e-05 -0.521017 5.96755e-06 0.000368199 -0.521344 -0.011199 -0.00116707 -0.521055 0.0277072 0.000252604 -0.52204 -0.0085585 0.000789508 -0.521678 -0.0224076 0.00103147 -0.521054 -0.0276945 -0.000988329 -0.520385 0.022419 0.000279598 -0.569595 -0.00867472 -0.000250719 -0.570131 0.00435036 -0.000432741 -0.569594 0.00869607 0.000375629 -0.570339 -0.0113604 0.000839996 -0.570025 -0.0227301 -0.000241698 -0.571176 0.00434576 -0.000939432 -0.571317 0.0227415 -0.000626012 -0.570667 0.0140573 -0.00039939 -0.571685 0.00868687 -7.63537e-05 -0.570659 5.96766e-06 0.000361032 -0.570985 -0.0113632 -0.00117567 -0.570691 0.0281128 0.000247103 -0.571686 -0.00868392 0.000786033 -0.571317 -0.0227358 0.00102297 -0.57069 -0.0281002 -0.000992009 -0.570025 0.0227472 0.000268138 -0.619899 -0.00877931 -0.000258586 -0.620433 0.00440274 -0.000438494 -0.619898 0.00880073 0.000365731 -0.620639 -0.0114974 0.000826687 -0.620324 -0.023004 -0.000251134 -0.621478 0.00439809 -0.000952689 -0.621616 0.0230154 -0.000634678 -0.620967 0.0142267 -0.000410952 -0.621989 0.00879144 -8.49984e-05 -0.62096 5.96774e-06 0.000353674 -0.621286 -0.0115003 -0.00118436 -0.620986 0.0284514 0.000241302 -0.62199 -0.0087886 0.000782122 -0.621616 -0.0230097 0.00101437 -0.620986 -0.0284388 -0.000996111 -0.620324 0.0230211 0.000256816 -0.670747 -0.00886467 -0.000266593 -0.671279 0.0044455 -0.000444553 -0.670747 0.00888616 0.00035585 -0.671484 -0.0116093 0.000813659 -0.671167 -0.0232275 -0.000260589 -0.672324 0.00444082 -0.000965666 -0.672459 0.023239 -0.000643423 -0.671811 0.014365 -0.000422366 -0.672838 0.00887678 -9.37239e-05 -0.671805 5.96782e-06 0.000346135 -0.67213 -0.0116122 -0.00119312 -0.671826 0.0287277 0.000235197 -0.672838 -0.00887404 0.00077776 -0.672459 -0.0232333 0.00100568 -0.671826 -0.0287152 -0.00100065 -0.671167 0.0232447 0.000245666 -0.722033 -0.00893243 -0.000274731 -0.722562 0.00447946 -0.000450921 -0.722032 0.00895396 0.000346009 -0.722766 -0.0116981 0.000800959 -0.722448 -0.0234049 -0.000270042 -0.723608 0.00447474 -0.00097832 -0.72374 0.0234164 -0.000652231 -0.723092 0.0144749 -0.0004336 -0.724123 0.00894452 -0.000102514 -0.723088 5.96789e-06 0.000338423 -0.723413 -0.0117011 -0.00120195 -0.723104 0.028947 0.000228788 -0.724124 -0.00894186 0.000772933 -0.723741 -0.0234107 0.000996921 -0.723104 -0.0289345 -0.00100563 -0.722448 0.0234222 0.00023472 -0.773659 -0.00898433 -0.000282991 -0.774187 0.00450548 -0.000457601 -0.773659 0.00900589 0.00033623 -0.77439 -0.0117662 0.00078863 -0.774071 -0.0235408 -0.000279475 -0.775233 0.00450074 -0.000990606 -0.775363 0.0235523 -0.000661087 -0.774715 0.014559 -0.00044462 -0.77575 0.0089964 -0.000111356 -0.774712 5.96795e-06 0.000330542 -0.775036 -0.0117692 -0.00121082 -0.774724 0.029115 0.000222071 -0.77575 -0.00899381 0.000767626 -0.775363 -0.0235466 0.000988108 -0.774724 -0.0291026 -0.00101107 -0.774071 0.0235582 0.000224009 -0.825541 -0.00902224 -0.000291364 -0.826067 0.00452451 -0.0004646 -0.82554 0.00904382 0.000326535 -0.826269 -0.011816 0.000776715 -0.825949 -0.02364 -0.000288868 -0.827113 0.00451975 -0.00100248 -0.827241 0.0236516 -0.000669979 -0.826594 0.0146206 -0.000455394 -0.827632 0.0090343 -0.000120236 -0.826591 5.968e-06 0.000322497 -0.826916 -0.011819 -0.00121972 -0.8266 0.0292377 0.000215038 -0.827632 -0.00903176 0.000761821 -0.827241 -0.0236459 0.000979252 -0.8266 -0.0292253 -0.001017 -0.825949 0.0236575 0.000213562 -0.877602 -0.00904819 -0.000299845 -0.878127 0.00453755 -0.000471925 -0.877602 0.00906977 0.000316942 -0.878329 -0.0118502 0.000765257 -0.878007 -0.0237079 -0.000298207 -0.879173 0.00453278 -0.00101391 -0.8793 0.0237196 -0.000678896 -0.878653 0.0146628 -0.000465894 -0.879693 0.00906022 -0.000129142 -0.878651 5.96805e-06 0.000314293 -0.878975 -0.0118531 -0.00122865 -0.878657 0.0293216 0.000207684 -0.879694 -0.00905773 0.000755499 -0.8793 -0.0237138 0.000970365 -0.878657 -0.0293093 -0.00102342 -0.878007 0.0237255 0.000203409 -0.929781 -0.0090643 -0.000308429 -0.930305 0.00454568 -0.000479587 -0.929781 0.00908586 0.00030747 -0.930506 -0.0118714 0.000754295 -0.930183 -0.02375 -0.000307476 -0.931351 0.0045409 -0.00102484 -0.931476 0.0237618 -0.000687828 -0.930829 0.014689 -0.00047609 -0.931872 0.00907631 -0.000138067 -0.930828 5.96808e-06 0.000305929 -0.931152 -0.0118744 -0.00123759 -0.930832 0.0293737 0.0002 -0.931872 -0.00907385 0.000748637 -0.931476 -0.0237559 0.000961457 -0.930832 -0.0293615 -0.00103036 -0.930183 0.0237677 0.000193574 -0.982026 -0.00907283 -0.000317115 -0.982549 0.00455001 -0.000487597 -0.982026 0.00909438 0.000298136 -0.982749 -0.0118827 0.000743868 -0.982427 -0.0237723 -0.000316663 -0.983595 0.00454523 -0.00103525 -0.983719 0.0237841 -0.000696768 -0.983073 0.0147031 -0.000485956 -0.984117 0.00908482 -0.000147001 -0.983072 5.9681e-06 0.000297404 -0.983396 -0.0118857 -0.00124654 -0.983074 0.0294012 0.000191972 -0.984117 -0.00908239 0.000741213 -0.983719 -0.0237782 0.000952533 -0.983074 -0.0293891 -0.00103784 -0.982427 0.02379 0.000184079 -1.0343 -0.00907619 -0.000325899 -1.03482 0.00455176 -0.000495965 -1.0343 0.00909772 0.000288947 -1.03502 -0.0118873 0.000734008 -1.0347 -0.0237811 -0.000325758 -1.03587 0.00454698 -0.00104509 -1.03599 0.0237929 -0.000705711 -1.03535 0.0147087 -0.000495469 -1.03639 0.00908815 -0.00015594 -1.03535 5.96812e-06 0.000288719 -1.03567 -0.0118903 -0.00125548 -1.03535 0.029412 0.000183594 -1.03639 -0.00908576 0.000733206 -1.03599 -0.023787 0.000943601 -1.03535 -0.0294 -0.00104588 -1.0347 0.0237988 0.000174954 -1.08658 -0.00907691 -0.000334789 -1.08711 0.00455217 -0.000504716 -1.08658 0.00909842 0.000279926 -1.08731 -0.0118884 0.000724762 -1.08698 -0.0237829 -0.000334749 -1.08815 0.00454739 -0.00105434 -1.08827 0.0237948 -0.000714652 -1.08763 0.01471 -0.0005046 -1.08867 0.00908886 -0.00016488 -1.08763 5.96812e-06 0.000279862 -1.08795 -0.0118914 -0.00126442 -1.08763 0.0294143 0.00017484 -1.08867 -0.00908648 0.000724575 -1.08827 -0.0237888 0.000934663 -1.08763 -0.0294023 -0.00105452 -1.08698 0.0238007 0.000232506 -0.11259 -0.00636079 -0.000108505 -0.11903 0.00316531 -0.000222702 -0.112582 0.0063755 0.00029512 -0.121474 -0.00822855 0.000615429 -0.117539 -0.016544 -0.00010068 -0.131585 0.00310988 -0.000517644 -0.133132 0.0162782 -0.000349086 -0.125373 0.0101208 -0.000182314 -0.137807 0.00619474 2.91961e-06 -0.125347 4.27227e-06 0.000276326 -0.129224 -0.00815015 -0.000705279 -0.125425 0.0202583 0.000184368 -0.137807 -0.00619656 0.000517409 -0.133135 -0.016276 0.000703214 -0.125427 -0.0202447 -0.000608511 -0.117549 0.0165449 -7.60753e-06 -0.11431 0.00279181 -4.87999e-05 -0.116338 0.014661 -2.17109e-05 -0.122859 0.00562521 2.48936e-06 -0.10579 -5.82369e-06 3.32519e-05 -0.11106 -0.0073008 2.66257e-05 -0.122854 -0.00562601 5.60057e-05 -0.116331 -0.0146581 -0.00036468 -0.162702 -0.00666238 0.000204718 -0.163282 0.00335732 0.000408515 -0.162698 0.00669535 -0.000352059 -0.202112 -0.00698499 0.000214811 -0.202666 0.00351429 0.000418223 -0.20211 0.00702147 -0.000442971 -0.163509 -0.00873699 -0.000433284 -0.202888 -0.00914808 -0.00093633 -0.163194 -0.0174706 -0.000934559 -0.202595 -0.0183181 0.000175407 -0.164333 0.00333844 0.000811604 -0.164522 0.0174386 0.000566172 -0.163853 0.0108178 0.000191046 -0.203707 0.0035098 0.000856148 -0.203878 0.018344 0.000584783 -0.203224 0.0113372 0.000297773 -0.164817 0.00664966 0.000329432 -0.204189 0.00701194 2.19837e-05 -0.163829 1.15449e-05 3.23591e-05 -0.203201 1.18498e-05 -0.000395609 -0.164162 -0.0087174 -0.000395011 -0.203531 -0.00915445 0.00110693 -0.163921 0.0216081 0.0011376 -0.203289 0.0226722 -0.000258322 -0.164819 -0.00663808 -0.000265231 -0.204192 -0.00699958 -0.000764752 -0.164525 -0.0174212 -0.000789475 -0.203877 -0.0183291 -0.00106359 -0.163919 -0.0215866 -0.00107265 -0.203288 -0.0226473 0.000976986 -0.163195 0.0175061 0.000997512 -0.202595 0.0183472 -0.000336641 -0.24331 -0.00728582 0.000225166 -0.243866 0.00366641 0.000425581 -0.243307 0.00732196 -0.000418989 -0.244088 -0.00954609 -0.000912438 -0.243787 -0.0191071 0.000202187 -0.244912 0.00366009 0.000865661 -0.245081 0.0191313 0.000592975 -0.244424 0.0118283 0.00034113 -0.245401 0.00731016 4.39355e-05 -0.244403 1.17656e-05 -0.000381773 -0.244734 -0.00954978 0.00114168 -0.244483 0.0236501 -0.00025448 -0.245403 -0.00729886 -0.000776099 -0.245081 -0.0191161 -0.0010539 -0.244482 -0.0236256 0.0009986 -0.243787 0.0191379 -0.000320728 -0.286172 -0.00756048 0.000235773 -0.286725 0.00380354 0.000433239 -0.28617 0.00759724 -0.00040539 -0.286944 -0.00990478 -0.000894882 -0.286642 -0.0198262 0.000215409 -0.28777 0.00379714 0.000885738 -0.287934 0.0198486 0.000605429 -0.287279 0.0122718 0.000357742 -0.288261 0.00758409 5.57512e-05 -0.28726 1.17887e-05 -0.000372444 -0.28759 -0.00990881 0.00115527 -0.287332 0.0245375 -0.000247132 -0.288263 -0.00757311 -0.000772657 -0.287934 -0.0198337 -0.00104379 -0.287331 -0.024513 0.00100478 -0.286642 0.019857 -0.000304849 -0.330531 -0.00780723 0.000247037 -0.331081 0.00392723 0.000441679 -0.33053 0.0078443 -0.000391636 -0.331298 -0.0102282 -0.000876389 -0.330994 -0.0204726 0.000228651 -0.332126 0.00392058 0.000903796 -0.332286 0.0204955 0.000617663 -0.331632 0.0126717 0.00037373 -0.332621 0.00783111 6.79659e-05 -0.331615 1.17826e-05 -0.000361886 -0.331944 -0.0102323 0.00116729 -0.33168 0.025337 -0.000238657 -0.332623 -0.0078205 -0.00076646 -0.332286 -0.0204809 -0.00103139 -0.331679 -0.0253125 0.00101091 -0.330994 0.0205036 -0.000288635 -0.376235 -0.00802779 0.000258536 -0.376782 0.00403768 0.000450444 -0.376234 0.0080652 -0.000377422 -0.376997 -0.0105172 -0.000857801 -0.37669 -0.0210504 0.000242214 -0.377827 0.0040309 0.000922376 -0.377983 0.0210733 0.000630211 -0.377329 0.0130289 0.000390072 -0.378325 0.00805162 8.05051e-05 -0.377314 1.17847e-05 -0.000351013 -0.377643 -0.0105214 0.00117993 -0.377372 0.0260512 -0.000229813 -0.378326 -0.00804137 -0.000760115 -0.377983 -0.0210588 -0.00101894 -0.377371 -0.0260268 0.00101755 -0.37669 0.0210816 -0.000272293 -0.423133 -0.00822291 0.000270407 -0.423677 0.00413541 0.000459674 -0.423132 0.0082606 -0.000363041 -0.42389 -0.0107728 -0.000839149 -0.423582 -0.0215614 0.00025604 -0.424723 0.00412848 0.00094097 -0.424874 0.0215843 0.000643084 -0.424222 0.0133449 0.000406549 -0.425223 0.00824673 9.33385e-05 -0.424209 1.17844e-05 -0.000339795 -0.424537 -0.0107771 0.00119282 -0.424259 0.0266831 -0.000220534 -0.425225 -0.00823677 -0.000753193 -0.424875 -0.02157 -0.00100616 -0.424259 -0.0266587 0.00102472 -0.423582 0.0215929 -0.000255835 -0.471083 -0.00839357 0.000282566 -0.471624 0.0042209 0.000469307 -0.471082 0.00843151 -0.000348449 -0.471835 -0.0109964 -0.000820482 -0.471525 -0.0220085 0.000270079 -0.472669 0.00421384 0.000959585 -0.472817 0.0220314 0.000656203 -0.472166 0.0136213 0.000423131 -0.473173 0.00841738 0.000106431 -0.472154 1.17848e-05 -0.000328243 -0.472482 -0.0110008 0.00120597 -0.472198 0.0272357 -0.000210844 -0.473174 -0.0084077 -0.000745767 -0.472818 -0.0220172 -0.000993126 -0.472198 -0.0272114 0.00103238 -0.471525 0.0220401 -0.000239318 -0.519945 -0.00854091 0.000295 -0.520484 0.00429472 0.000479339 -0.519944 0.00857906 -0.000333708 -0.520694 -0.0111895 -0.000801864 -0.520381 -0.0223944 0.000284297 -0.521529 0.00428754 0.000978149 -0.521674 0.0224174 0.000669547 -0.521023 0.01386 0.000439765 -0.522036 0.0085647 0.000119749 -0.521013 1.1785e-05 -0.00031639 -0.52134 -0.0111939 0.00121934 -0.521051 0.0277128 -0.00020076 -0.522037 -0.00855526 -0.000737832 -0.521674 -0.0224033 -0.000979858 -0.52105 -0.0276885 0.00104054 -0.520381 0.0224262 -0.000222791 -0.56959 -0.00866617 0.000307677 -0.570126 0.00435748 0.000489751 -0.569589 0.0087045 -0.000318855 -0.570335 -0.0113536 -0.000783356 -0.570021 -0.0227225 0.000298656 -0.571172 0.00435021 0.000996604 -0.571313 0.0227455 0.000683082 -0.570663 0.014063 0.000456401 -0.571681 0.00868995 0.00013326 -0.570655 1.17852e-05 -0.000304259 -0.570981 -0.0113581 0.0012329 -0.570687 0.0281185 -0.000190296 -0.571682 -0.00868071 -0.000729394 -0.571313 -0.0227315 -0.000966393 -0.570686 -0.0280942 0.00104918 -0.570021 0.0227545 -0.000206301 -0.619894 -0.00877072 0.000320573 -0.620428 0.00440988 0.000500534 -0.619893 0.00880919 -0.000303928 -0.620635 -0.0114907 -0.000765017 -0.620319 -0.0229963 0.000313122 -0.621474 0.00440253 0.00101489 -0.621612 0.0230194 0.000696778 -0.620962 0.0142324 0.000472991 -0.621985 0.00879449 0.000146935 -0.620955 1.17854e-05 -0.000291872 -0.621281 -0.0114952 0.00124662 -0.620982 0.028457 -0.000179465 -0.621986 -0.00878543 -0.000720452 -0.621612 -0.0230054 -0.00095276 -0.620981 -0.0284328 0.00105831 -0.620319 0.0230285 -0.000189896 -0.670742 -0.00885606 0.000333665 -0.671273 0.00445265 0.000511677 -0.670741 0.00889464 -0.000288963 -0.671479 -0.0116026 -0.000746905 -0.671162 -0.0232198 0.000327661 -0.672319 0.00444524 0.00103295 -0.672455 0.0232429 0.000710607 -0.671806 0.0143707 0.00048949 -0.672833 0.00887981 0.000160744 -0.6718 1.17855e-05 -0.000279248 -0.672125 -0.0116071 0.00126047 -0.671821 0.0287333 -0.000168277 -0.672834 -0.00887089 -0.000711006 -0.672455 -0.023229 -0.000938988 -0.671821 -0.0287091 0.00106793 -0.671162 0.0232521 -0.000173618 -0.722027 -0.00892379 0.00034693 -0.722557 0.00448662 0.000523171 -0.722027 0.00896246 -0.000273994 -0.722761 -0.0116914 -0.000729077 -0.722443 -0.0233972 0.000342242 -0.723603 0.00447915 0.00105073 -0.723735 0.0234204 0.000724542 -0.723087 0.0144806 0.000505851 -0.724118 0.00894753 0.000174662 -0.723083 1.17857e-05 -0.000266408 -0.723407 -0.011696 0.00127442 -0.723099 0.0289526 -0.000156741 -0.724119 -0.00893873 -0.000701052 -0.723735 -0.0234065 -0.000925103 -0.723099 -0.0289285 0.00107804 -0.722443 0.0234296 -0.00015751 -0.773653 -0.00897568 0.000360351 -0.774181 0.00451265 0.000535013 -0.773653 0.00901441 -0.000259053 -0.774384 -0.0117595 -0.000711586 -0.774065 -0.0235331 0.000356836 -0.775227 0.00450514 0.00106818 -0.775358 0.0235563 0.000738561 -0.77471 0.0145647 0.000522032 -0.775745 0.00899939 0.000188666 -0.774706 1.17858e-05 -0.000253365 -0.775031 -0.0117641 0.00128845 -0.774719 0.0291206 -0.000144861 -0.775745 -0.00899069 -0.000690583 -0.775358 -0.0235424 -0.000911128 -0.774719 -0.0290965 0.00108865 -0.774065 0.0235656 -0.000141612 -0.825534 -0.00901358 0.000373912 -0.826061 0.00453169 0.000547199 -0.825534 0.00905235 -0.000244171 -0.826263 -0.0118093 -0.000694484 -0.825942 -0.0236323 0.000371417 -0.827107 0.00452415 0.00108524 -0.827235 0.0236556 0.00075264 -0.826588 0.0146263 0.000537994 -0.827626 0.00903728 0.000202733 -0.