<VTKFile type="UnstructuredGrid" version="1.0" byte_order="LittleEndian" header_type="UInt64">
  <UnstructuredGrid>
    <Piece NumberOfPoints="791" NumberOfCells="973">
      <PointData>
        <DataArray type="Float32" Name="ux" format="ascii" RangeMin="0" RangeMax="0.73096609116">
          0.061168387532 0.066778816283 0.06900806725 0.060117233545 0.061150185764 0.068912304938
          0.066826887429 0.061166476458 0.065371066332 0.06212542206 0.060145247728 0.065402127802
          0.061185482889 0.062177944928 0.065379180014 0.062153190374 0.065340533853 0.062089428306
          0.072501420975 0.064966320992 0.072603277862 0.072487443686 0.072585493326 0.072443209589
          0.064914189279 0.072556883097 0.059455826879 0.13749486208 0.13788184524 0.13807992637
          0.11156327277 0.11198114604 0.11214964837 0.13737228513 0.11147657037 0.13698980212
          0.11107798666 0.13785886765 0.13834071159 0.13813370466 0.11198121309 0.11245246232
          0.11224193871 0.13799867034 0.11213444173 0.13772708178 0.1118414849 0.13739658892
          0.1115270257 0.13851979375 0.11261602491 0.13754454255 0.11170606315 0.13708610833
          0.11124772578 0.13684096932 0.11096676439 0.13845703006 0.11253130436 0.16465601325
          0.16504925489 0.16523495317 0.16454434395 0.164162606 0.16503183544 0.16551692784
          0.16530416906 0.16517335176 0.16489905119 0.16457207501 0.16568954289 0.16471815109
          0.16426545382 0.16402134299 0.16561450064 0.1930000037 0.19339111447 0.19357289374
          0.19289021194 0.19251333177 0.19337570667 0.19386705756 0.19364999235 0.19351537526
          0.19324320555 0.19291454554 0.19403937459 0.19305369258 0.1926035285 0.1923686862
          0.19395665824 0.22240576148 0.22279691696 0.22297306359 0.22229909897 0.22192595899
          0.22278261185 0.22327956557 0.22305846214 0.22292140126 0.22265057266 0.22232095897
          0.22345049679 0.22245426476 0.22200754285 0.22178003192 0.22336009145 0.25276723504
          0.25315785408 0.25332894921 0.25266346335 0.25229424238 0.2531452477 0.25364765525
          0.2534224689 0.25328290462 0.25301352143 0.25268301368 0.25381737947 0.2528103888
          0.25236678123 0.25214678049 0.25371938944 0.28397968411 0.28436994553 0.28453603387
          0.28387877345 0.28351321816 0.28435876966 0.28486648202 0.28463739157 0.28449544311
          0.28422737122 0.28389593959 0.28503501415 0.28401768208 0.28357714415 0.28336432576
          0.28492975235 0.31594187021 0.316331774 0.31649309397 0.31584370136 0.31548169255
          0.31632202864 0.3168348372 0.31660196185 0.31645771861 0.31619089842 0.31585860252
          0.31700220704 0.31597492099 0.31553730369 0.31533136964 0.31688988209 0.34855657816
          0.34894612432 0.34910288453 0.34846097231 0.34810236096 0.34893774986 0.3494554162
          0.34921893477 0.34907248616 0.34880691767 0.34847378731 0.34962174296 0.34858486056
          0.34815004468 0.34795069695 0.34950271249 0.38173106313 0.38212028146 0.38227272034
          0.38163787127 0.38128247857 0.3821131587 0.38263547421 0.38239559531 0.38224703074
          0.38198262453 0.38164865971 0.38280075788 0.38175487518 0.3813226819 0.38112953305
          0.38267537951 0.41537761688 0.41576650739 0.41591495275 0.4152867496 0.41493433714
          0.41576063633 0.41628724337 0.41604417562 0.4158936739 0.41563031077 0.41529563069
          0.41645154357 0.41539725661 0.41496753693 0.41478019953 0.41632023454 0.44941422343
          0.44980284572 0.44994753599 0.44932544231 0.44897583127 0.44979807734 0.45032864809
          0.45008262992 0.44993034005 0.44966799021 0.44933262467 0.45049205422 0.44943001866
          0.44900256395 0.44882062078 0.45035529137 0.48376503587 0.48415338993 0.48429471254
          0.4836781919 0.48333108425 0.48414963484 0.48468387127 0.48443517089 0.48428124189
          0.48401978612 0.48368379474 0.48484647274 0.48377731442 0.48335194588 0.48317489028
          0.48470470309 0.51836109161 0.51874923706 0.51888751984 0.51827603579 0.51793110371
          0.51874643564 0.51928389072 0.51903277636 0.51887738705 0.51861673594 0.51828020811
          0.51944577694 0.51837027073 0.51794672012 0.51777404547 0.51929950714 0.55314087868
          0.55352878571 0.55366444588 0.55305725336 0.55271434784 0.55352675915 0.55406701565
          0.55381387472 0.55365723372 0.55339723825 0.55306023359 0.55422830582 0.55314731598
          0.5527254343 0.55255651474 0.55407816172 0.58805054426 0.58843833208 0.58857172728
          0.58796823025 0.58762693405 0.58843696117 0.58897960186 0.58872467279 0.5885669589
          0.58830755949 0.5879701376 0.58914035559 0.58805471659 0.58763414621 0.5874684453
          0.58898693323 0.62304484844 0.62343251705 0.62356412411 0.62296354771 0.62262356281
          0.62343168259 0.62397623062 0.62371987104 0.62356132269 0.62330240011 0.62296462059
          0.62413650751 0.62304723263 0.62262773514 0.62246453762 0.62398052216 0.65808755159
          0.6584751606 0.65860545635 0.65800696611 0.65766793489 0.65847474337 0.65902066231
          0.65876328945 0.65860414505 0.6583455205 0.65800750256 0.65918070078 0.65808862448
          0.65766990185 0.65750861168 0.65902268887 0.69315207005 0.69353967905 0.69366919994
          0.69307202101 0.69273358583 0.69353950024 0.69408637285 0.69382828474 0.69366872311
          0.69341033697 0.69307219982 0.6942461133 0.69315242767 0.69273412228 0.6925739646
          0.6940869689 0.72822219133 0.72860974073 0.7287389636 0.72814226151 0.72780400515
          0.72860968113 0.72915679216 0.72889852524 0.728738904 0.72848051786 0.72814232111
          0.72931653261 0.72822225094 0.72780412436 0.7276443243 0.72915697098 0.077969960868
          0.082247599959 0.078315019608 0.083453707397 0.080728277564 0.090191237628 0.091451376677
          0.0864033252 0.09427229315 0.086139760911 0.088377736509 0.086652502418 0.093980319798
          0.090649470687 0.085568718612 0.081671580672 0.078427523375 0.079807475209 0.084282025695
          0.072564654052 0.076133437455 0.084242172539 0.079696334898 0.11209280044 0.11165927351
          0.11152260751 0.13801245391 0.13755083084 0.1374450177 0.11212376505 0.13801084459
          0.1124625653 0.13837812841 0.11170405895 0.11122266203 0.11137914658 0.13756400347
          0.13705031574 0.13724896312 0.11167503893 0.1374976635 0.11179342121 0.13766914606
          0.11210419238 0.13797828555 0.11094339937 0.1368072778 0.11207940429 0.13793341815
          0.11237794906 0.13825814426 0.11254253238 0.1384357065 0.11105336249 0.13695453107
          0.16517703235 0.16472946107 0.16461546719 0.16518816352 0.16554446518 0.16474710405
          0.16423945129 0.16443404555 0.16468170285 0.16485054791 0.16516055167 0.16399797797
          0.1651173681 0.16544383764 0.16561457515 0.16413703561 0.19354297221 0.19310122728
          0.19298768044 0.19355940819 0.19391468167 0.19311696291 0.19260565937 0.19280715287
          0.19304469228 0.19322276115 0.19353465736 0.19237358868 0.19348740578 0.19382214546
          0.19399234653 0.19251585007 0.22298765182 0.22255294025 0.22243793309 0.223010391
          0.22336231172 0.22256682813 0.22205421329 0.22226019204 0.22248958051 0.22267459333
          0.22298789024 0.2218298167 0.22293774784 0.22327928245 0.22344768047 0.22197298706
          0.25340259075 0.25297448039 0.25285848975 0.25343123078 0.2537804842 0.25298696756
          0.25247254968 0.25268337131 0.25290444493 0.2530965507 0.25341129303 0.25225588679
          0.25335821509 0.25370657444 0.25387340784 0.25240027905 0.28468161821 0.28425994515
          0.28414288163 0.2847160697 0.2850625515 0.28427094221 0.28375485539 0.28397023678
          0.28418341279 0.28438231349 0.28469845653 0.28354561329 0.28464251757 0.28499743342
          0.28516274691 0.28369119763 0.316721946 0.31630641222 0.31618839502 0.31676191092
          0.31710579991 0.31631597877 0.31579837203 0.31601816416 0.31622365117 0.31642907858
          0.31674656272 0.31559625268 0.31668791175 0.3170491159 0.31721296906 0.31574293971
          0.34942489862 0.3490152657 0.34889629483 0.34947007895 0.34981149435 0.34902346134
          0.34850436449 0.34872835875 0.34892657399 0.34913823009 0.34945693612 0.34830909967
          0.34939569235 0.34976285696 0.34992533922 0.34845677018 0.38269641995 0.38229236007
          0.38217246532 0.38274657726 0.38308563828 0.38229930401 0.38177880645 0.38200673461
          0.38219806552 0.38241559267 0.3827354908 0.38158994913 0.38267177343 0.38304457068
          0.38320574164 0.38173863292 0.41644760966 0.41604876518 0.41592806578 0.41650244594
          0.41683933139 0.41605451703 0.41553270817 0.41576433182 0.41594919562 0.4161722362
          0.41649329662 0.41534984112 0.41642722487 0.41680535674 0.41696530581 0.41549944878
          0.45059525967 0.45020121336 0.45007970929 0.45065441728 0.45098927617 0.45020586252
          0.44968280196 0.44991785288 0.45009678602 0.4503249526 0.4506470263 0.44950547814
          0.45057883859 0.45096188784 0.45112073421 0.44965595007 0.48506245017 0.4846727252
          0.48455056548 0.48512551188 0.48545852304 0.48467639089 0.48415219784 0.484390378
          0.48456391692 0.48479667306 0.48511973023 0.48397994041 0.48504960537 0.48543712497
          0.48559492826 0.484131217 0.51977914572 0.51939332485 0.51927047968 0.5198456645
          0.52017706633 0.51939606667 0.51887083054 0.51911181211 0.51928055286 0.51951742172
          0.51984131336 0.51870310307 0.51976948977 0.52016103268 0.5203179121 0.51885509491
          0.55468273163 0.55430030823 0.55417692661 0.55475229025 0.55508232117 0.55430227518
          0.55377620459 0.55401957035 0.55418407917 0.55442458391 0.55474925041 0.55361235142
          0.55467587709 0.55507087708 0.55522698164 0.55376499891 0.58971863985 0.58933907747
          0.58921527863 0.58979082108 0.59011954069 0.58934038877 0.58881360292 0.58905905485
          0.58921998739 0.58946353197 0.58978879452 0.58865314722 0.5897141099 0.59011203051
          0.59026747942 0.58880627155 0.6248409152 0.62446373701 0.62433952093 0.62491512299
          0.62524282932 0.62446445227 0.62393712997 0.62418419123 0.62434226274 0.62458825111
          0.62491393089 0.62377935648 0.6248382926 0.62523847818 0.62539333105 0.62393289804
          0.66001290083 0.65963745117 0.65951299667 0.66008859873 0.66041558981 0.6596378088
          0.65911006927 0.65935832262 0.65951430798 0.65976202488 0.66008806229 0.65895426273
          0.66001170874 0.66041356325 0.66056799889 0.65910804272 0.69520771503 0.69483333826
          0.69470870495 0.69528442621 0.69561094046 0.69483345747 0.69430547953 0.69455444813
          0.69470912218 0.69495797157 0.69528418779 0.69415086508 0.69520735741 0.69561034441
          0.69576448202 0.69430482388 0.73040878773 0.73003470898 0.72991001606 0.73048573732
          0.73081213236 0.73003470898 0.72950667143 0.72975587845 0.72991013527 0.73015934229
          0.73048567772 0.72935241461 0.73040866852 0.73081201315 0.73096609116 0.72950649261
          0.078306555748 0.082068704069 0.077969186008 0.083878204226 0.081635288894 0.09001750499
          0.090651378036 0.085860773921 0.093972682953 0.086124457419 0.088770106435 0.085575804114
          0.094230853021 0.091401413083 0.086602553725 0.080744557083 0.078405156732 0.079721055925
          0.084234878421 0.072560019791 0.076174378395 0.084268912673 0.079770445824 0.039601966739
          0.039335194975 0.039291553199 0.039579167962 0.03949726373 0.039751447737 0.03951921314
          0.039742123336 0.039487566799 0.039573144168 0.03926608339 0.039305768907 0.039570163935
          0.024261467159 0.024114092812 0.024001883343 0.024202115834 0.02411403507 0.024344164878
          0.024117516354 0.024334693328 0.024104682729 0.024242158979 0.02398493886 0.024090619758
          0.024197142571 0.013074764982 0.012897482142 0.012803775258 0.013021965511 0.012936288491
          0.013170110062 0.01294308342 0.013163628988 0.012930098921 0.013060515746 0.0127913123
          0.012881294824 0.01301839482 0.0055811693892 0.0054193800315 0.0053264838643 0.0055313897319
          0.0054521849379 0.0056711751968 0.0054608643986 0.0056664100848 0.0054482039995 0.0055719134398
          0.0053192004561 0.0054090926424 0.0055298041552 0.0014156203251 0.0012195154559 0.0011095879599
          0.0013566592243 0.0012546740472 0.0015241134679 0.0012622291688 0.0015208011027 0.0012527836952
          0.0014105589362 0.0011067065643 0.0012146123918 0.0013569147559 0 0
          0 0 0 0 0 0
          0 0 0 0 0
        </DataArray>
        <DataArray type="Float32" Name="uy" format="ascii" RangeMin="0" RangeMax="0.80751478672">
          0.06570507586 0.071593955159 0.073977932334 0.064677603543 0.065619975328 0.073869511485
          0.07158985734 0.06566901505 0.070177264512 0.066796086729 0.06469514966 0.070309862494
          0.065679617226 0.06681393832 0.070356711745 0.066847607493 0.070159189403 0.066766105592
          0.077742353082 0.069754712284 0.077793814242 0.077804364264 0.077854201198 0.077764093876
          0.069774329662 0.077879808843 0.063955597579 0.14867952466 0.14914244413 0.14874464273
          0.11961168796 0.12008407712 0.11966118962 0.14928717911 0.12024065107 0.14902439713
          0.1199651286 0.14991642535 0.15000210702 0.14955751598 0.12086667866 0.12096414715
          0.12050617486 0.15025997162 0.12120967358 0.14953993261 0.12049379945 0.14980512857
          0.12076452374 0.1496052742 0.12055913359 0.15032678843 0.12128102779 0.1501070559
          0.12107818574 0.14960438013 0.12056388706 0.14913037419 0.12005448341 0.17908596992
          0.17954581976 0.17914308608 0.17969243228 0.17942813039 0.18032540381 0.18041461706
          0.17996184528 0.18067605793 0.17994579673 0.18021003902 0.18000620604 0.18073511124
          0.18050774932 0.18000347912 0.17952375114 0.2107296139 0.21118284762 0.21078166366
          0.21132993698 0.21106810868 0.21196335554 0.21205237508 0.21159672737 0.21231763065
          0.21158236265 0.2118447721 0.21163672209 0.21237173676 0.21213747561 0.21163491905
          0.21115455031 0.24348901212 0.24393680692 0.24353577197 0.24408429861 0.24382391572
          0.24471868575 0.24480836093 0.24434901774 0.24507752061 0.24433602393 0.24459673464
          0.24438503385 0.24512603879 0.24488472939 0.2443832159 0.24390177429 0.27725234628
          0.27769461274 0.27729400992 0.27784258127 0.27758386731 0.27847796679 0.27856805921
          0.27810525894 0.27884098887 0.27809369564 0.27835273743 0.27813732624 0.27888417244
          0.27863606811 0.27813568711 0.27765318751 0.31190958619 0.31234654784 0.31194633245
          0.31249496341 0.31223776937 0.31313124299 0.31322181225 0.31275561452 0.313498348
          0.31274539232 0.31300285459 0.31278386712 0.31353640556 0.31328168511 0.31278240681
          0.31229892373 0.34735432267 0.34778618813 0.34738633037 0.34793502092 0.347679317
          0.34857222438 0.34866321087 0.34819373488 0.34894326329 0.34818485379 0.34844076633
          0.3482183814 0.34897637367 0.34871530533 0.3482170403 0.34773257375 0.38348433375
          0.38391131163 0.38351178169 0.38406059146 0.38380628824 0.38469865918 0.3847900629
          0.38431748748 0.38507345319 0.38430982828 0.38456428051 0.38433861732 0.3851018846
          0.38483473659 0.38433742523 0.38385203481 0.42020204663 0.42062446475 0.42022523284
          0.42077410221 0.4205211401 0.4214130044 0.42150482535 0.4210292697 0.42179137468
          0.42102280259 0.42127588391 0.42104712129 0.42181533575 0.42154246569 0.42104607821
          0.42055976391 0.45741525292 0.4578333497 0.45743441582 0.45798334479 0.45773163438
          0.45862302184 0.45871517062 0.45823690295 0.45900472999 0.45823156834 0.45848336816
          0.4582516849 0.45902451873 0.45874628425 0.45825076103 0.45776364207 0.4950375855
          0.49545171857 0.4950530827 0.49560207129 0.49535149336 0.49624243379 0.4963349402
          0.49585410953 0.49662721157 0.49584978819 0.49610039592 0.49586603045 0.49664315581
          0.49635997415 0.49586525559 0.49537733197 0.53298932314 0.53339982033 0.53300142288
          0.53355050087 0.53330099583 0.53419148922 0.53428429365 0.53380119801 0.53457909822
          0.53379780054 0.53404730558 0.53381049633 0.5345915556 0.53430384398 0.53380984068
          0.5333212018 0.57119780779 0.57160508633 0.5712069273 0.57175606489 0.57150745392
          0.57239764929 0.57249069214 0.57200551033 0.57278770208 0.57200294733 0.5722514987
          0.57201248407 0.57279700041 0.57250535488 0.57201194763 0.5715226531 0.60959821939
          0.61000269651 0.6096047163 0.61015385389 0.60990613699 0.61079597473 0.610889256
          0.61040222645 0.61118817329 0.61040043831 0.61064815521 0.61040723324 0.61119478941
          0.61089962721 0.61040681601 0.60991698503 0.64813405275 0.64853614569 0.64813828468
          0.64868754148 0.64844053984 0.64933007956 0.64942353964 0.64893507957 0.64972412586
          0.64893382788 0.64918088913 0.64893829823 0.6497284174 0.64943033457 0.6489380002
          0.64844763279 0.68675786257 0.68715804815 0.68676036596 0.68730968237 0.68706315756
          0.68795245886 0.68804615736 0.68755638599 0.68834805489 0.68755573034 0.68780219555
          0.68755829334 0.68835049868 0.68805003166 0.68755805492 0.68706732988 0.72543168068
          0.72583049536 0.72543287277 0.72598224878 0.7257361412 0.7266253233 0.7267190814
          0.72622847557 0.7270219326 0.72622811794 0.72647416592 0.72622936964 0.72702312469
          0.72672086954 0.72622919083 0.72573810816 0.76412767172 0.76452565193 0.76412808895
          0.76467746496 0.76443165541 0.76532071829 0.7654145956 0.76492339373 0.76571804285
          0.76492327452 0.76516908407 0.76492363214 0.76571840048 0.76541507244 0.76492357254
          0.76443225145 0.80282872915 0.80322641134 0.80282884836 0.80337828398 0.80313253403
          0.80402159691 0.80411541462 0.80362403393 0.80441910028 0.80362403393 0.80386978388
          0.80362409353 0.80441915989 0.80411553383 0.80362409353 0.80313265324 0.082662343979
          0.087467625737 0.082728721201 0.089249864221 0.086302056909 0.096721954644 0.097811162472
          0.092137314379 0.10128961504 0.092124685645 0.095009833574 0.092176020145 0.10137099028
          0.097946956754 0.092191427946 0.086415655911 0.084026001394 0.085499607027 0.090307354927
          0.077740296721 0.081617504358 0.090351194143 0.085536569357 0.11983467638 0.12023043633
          0.11977916956 0.14897803962 0.14934417605 0.14890986681 0.12041215599 0.14953222871
          0.12021682411 0.14935587347 0.12102017552 0.12120623887 0.12066284567 0.15012849867
          0.15029898286 0.14976446331 0.12140180916 0.15050721169 0.12063924223 0.14974732697
          0.12086611986 0.14997576177 0.12071143091 0.14981469512 0.12133234739 0.15044231713
          0.12109383196 0.15019056201 0.12070194632 0.14981198311 0.12012896687 0.14924927056
          0.17945702374 0.17982985079 0.17939628661 0.18001441658 0.17982907593 0.18061566353
          0.18077932298 0.18024913967 0.18099617958 0.18023321033 0.18046379089 0.18029335141
          0.18093860149 0.18068403006 0.18029272556 0.17973279953 0.21119305491 0.21156600118
          0.21113796532 0.21174673736 0.21155722439 0.21234962344 0.21250647306 0.21198162436
          0.21272997558 0.21196721494 0.21219809353 0.21202211082 0.21267729998 0.21241907775
          0.21202078462 0.21147035062 0.24406015873 0.24443435669 0.24401065707 0.24461169541
          0.24441720545 0.24521631002 0.24536648393 0.24484676123 0.245597139 0.24483378232
          0.24506531656 0.24488306046 0.24554988742 0.24528814852 0.24488203228 0.24433900416
          0.27794489264 0.27832013369 0.27790081501 0.27849406004 0.27829495072 0.2791005671
          0.27924418449 0.27872940898 0.2794816792 0.27871787548 0.27895003557 0.2787617445
          0.27943959832 0.27917435765 0.27876079082 0.2782253325 0.31273540854 0.31311166286
          0.31269657612 0.31328237057 0.3130787015 0.31389057636 0.31402790546 0.31351792812
          0.31427204609 0.31350773573 0.31374049187 0.31354641914 0.3142349422 0.31396636367
          0.31354555488 0.31301736832 0.34832379222 0.34870103002 0.34828996658 0.34886860847
          0.34866058826 0.3494784236 0.34960973263 0.34910437465 0.34986019135 0.34909549356
          0.34932881594 0.34912914038 0.34982788563 0.34955614805 0.34912839532 0.34860721231
          0.3846064806 0.38498461246 0.38457745314 0.38514921069 0.38493707776 0.38576060534
          0.38588613272 0.38538515568 0.3861426115 0.38537755609 0.38561141491 0.38540646434
          0.38611489534 0.38584014773 0.38540577888 0.38489127159 0.421484828 0.42186382413
          0.42146036029 0.42202562094 0.4218095839 0.42263844609 0.42275851965 0.42226177454
          0.42302072048 0.42225530744 0.4224896729 0.42227971554 0.42299732566 0.42271968722
          0.42227914929 0.42177093029 0.45886573195 0.45924553275 0.45884546638 0.45940467715
          0.45918497443 0.46001890302 0.46013388038 0.45964100957 0.46040144563 0.45963567495
          0.45987054706 0.45965585113 0.46038207412 0.46010178328 0.45965540409 0.45915305614
          0.49666202068 0.49704259634 0.49664571881 0.49719932675 0.49697625637 0.49781486392
          0.49792513251 0.49743583798 0.49819764495 0.49743154645 0.49766683578 0.49744781852
          0.49818202853 0.4978992641 0.49744743109 0.49695050716 0.53479325771 0.53517454863
          0.53478050232 0.53532904387 0.53510290384 0.53594583273 0.53605180979 0.53556573391
          0.53632879257 0.53556233644 0.53579807281 0.53557509184 0.53631657362 0.53603154421
          0.53557479382 0.53508281708 0.57318609953 0.57356798649 0.57317650318 0.57372051477
          0.57349163294 0.57433831692 0.57444047928 0.57395732403 0.57472151518 0.57395482063
          0.57419091463 0.57396435738 0.57471233606 0.57442528009 0.57396411896 0.57347655296
          0.61177486181 0.61215734482 0.61176812649 0.61230820417 0.61207681894 0.61292690039
          0.61302566528 0.61254507303 0.61331021786 0.61254328489 0.61277967691 0.61255007982
          0.61330372095 0.61301487684 0.61254990101 0.61206614971 0.65050244331 0.65088528395
          0.65049797297 0.65103465319 0.65080136061 0.65165412426 0.65175008774 0.65127164125
          0.65203756094 0.65127044916 0.65150713921 0.65127491951 0.65203332901 0.65174299479
          0.6512748003 0.65079432726 0.68932020664 0.6897034049 0.68931764364 0.68985158205
          0.68961668015 0.69047158957 0.69056528807 0.69008862972 0.69085508585 0.69008797407
          0.69032478333 0.69009053707 0.69085264206 0.69056117535 0.69009041786 0.68961262703
          0.72818952799 0.72857296467 0.7281883359 0.72872030735 0.72848421335 0.72934067249
          0.72943270206 0.72895735502 0.72972428799 0.728957057 0.72919398546 0.72895824909
          0.72972309589 0.72943079472 0.72895818949 0.728482306 0.76708197594 0.76746559143
          0.76708161831 0.76761239767 0.76737552881 0.76823306084 0.76832401752 0.76784950495
          0.76861667633 0.76784938574 0.76808643341 0.76784974337 0.7686163187 0.76832348108
          0.76784974337 0.76737499237 0.80598008633 0.80636376143 0.80598002672 0.80651038885
          0.80627328157 0.80713111162 0.80722177029 0.80674749613 0.80751478672 0.80674743652
          0.8069845438 0.80674755573 0.80751472712 0.80722165108 0.80674749613 0.80627316236
          0.082833655179 0.087540149689 0.082755453885 0.089367344975 0.086503610015 0.096826180816
          0.098022885621 0.092238150537 0.10144755989 0.09221213311 0.095052443445 0.092277497053
          0.10136424005 0.097890362144 0.092264212668 0.086406074464 0.084046080709 0.085560970008
          0.090369477868 0.07776889205 0.081662558019 0.090319894254 0.085514999926 0.042635649443
          0.042527962476 0.042367361486 0.042303804308 0.042458992451 0.042443200946 0.042442657053
          0.042474206537 0.04246096313 0.042646676302 0.042345616966 0.042517371476 0.042275026441
          0.026136113331 0.026106735691 0.025921752676 0.02581522055 0.025947351009 0.025931784883
          0.0259183608 0.025953251868 0.025946248323 0.026150036603 0.025907466188 0.02610739693
          0.025792445987 0.014117157087 0.014067766257 0.013888389803 0.013787464239 0.013928598724
          0.013915694319 0.013901148923 0.013930557296 0.013927995227 0.01412488427 0.013877230696
          0.014065459371 0.013771462254 0.0060661835596 0.0060208938085 0.0058493833058 0.0057507483289
          0.0058878450654 0.0058762398548 0.0058615878224 0.0058855335228 0.0058871889487 0.0060709854588
          0.0058420775458 0.0060194199905 0.0057404758409 0.0016297484981 0.0015753929038 0.0013626862783
          0.0012434251839 0.0014061292168 0.0014009515289 0.0013737342088 0.001405026298 0.0014054087223
          0.0016310831998 0.0013582849642 0.0015734783374 0.0012381805573 0 0
          0 0 0 0 0 0
          0 0 0 0 0
        </DataArray>
        <DataArray type="Float32" Name="uz" format="ascii" RangeMin="-0.068148560822" RangeMax="0.068128697574">
          0.013299976476 0.0072334664874 0.014059789479 0.0042302529328 -0.0064382557757 -0.0036018022802
          -0.011264767498 0.0063656875864 -0.002005162416 -0.0030265948735 -0.0042793354951 -0.021324152127
          -0.013352069072 -0.015187434852 0.021247509867 0.015130041167 0.0019418712473 0.002966404194
          0.0014719185419 -0.011394944042 -0.014714977704 -0.0051477295347 -0.021333228797 0.005087276455
          0.011351341382 0.021291259676 -3.729420132e-05 -0.047932352871 -0.048580814153 -0.058269653469
          -0.047479454428 -0.048130888492 -0.057328116149 -0.03653049469 -0.036628421396 -0.03415171057
          -0.034352496266 -0.034400030971 -0.043670609593 -0.047265280038 -0.034634772688 -0.043442200869
          -0.046881869435 -0.029888505116 -0.030363097787 -0.038907915354 -0.038914851844 -0.027763947845
          -0.028307860717 -0.0556306988 -0.054836828262 -0.019550794736 -0.020560624078 -0.016610516235
          -0.017727376893 -0.022190885618 -0.022972432896 -0.061204999685 -0.060154210776 -0.048370201141
          -0.049032725394 -0.059152022004 -0.036446463317 -0.033976614475 -0.034187607467 -0.043852955103
          -0.047636698931 -0.02945760265 -0.038915049285 -0.027271840721 -0.05636183545 -0.018675575033
          -0.015622786246 -0.021468466148 -0.062204383314 -0.048767447472 -0.049435567111 -0.059959452599
          -0.036366179585 -0.033813919872 -0.03399360925 -0.044020693749 -0.047969304025 -0.029067374766
          -0.038917493075 -0.026822451502 -0.057025264949 -0.017877049744 -0.014722073451 -0.020810239017
          -0.063112460077 -0.049125995487 -0.049801040441 -0.060686256737 -0.036294803023 -0.033668160439
          -0.033818714321 -0.044172666967 -0.048270661384 -0.028714546934 -0.03892043978 -0.026417244226
          -0.057624846697 -0.017155373469 -0.013908467256 -0.020216779783 -0.063931509852 -0.049447059631
          -0.050127923489 -0.061337336898 -0.036230932921 -0.033537648618 -0.033662293106 -0.044308654964
          -0.048540443182 -0.028399031609 -0.03892326355 -0.026054596528 -0.05816147849 -0.016509903595
          -0.013180673122 -0.019685594365 -0.064664937556 -0.049731656909 -0.050417792052 -0.061914302409
          -0.03617445752 -0.033422149718 -0.033523824066 -0.044429339468 -0.04877962172 -0.028119597584
          -0.038925822824 -0.025733405724 -0.058637134731 -0.015938058496 -0.012535867281 -0.019215077162
          -0.065314926207 -0.049981117249 -0.050671879202 -0.062419872731 -0.036125104874 -0.033321104944
          -0.033402640373 -0.044535171241 -0.04898930341 -0.02787492983 -0.038928218186 -0.025452131405
          -0.059053979814 -0.015437228605 -0.011971149594 -0.018803015351 -0.06588447839 -0.050196941942
          -0.050891689956 -0.062857098877 -0.03608257696 -0.033233892173 -0.033297978342 -0.04462679103
          -0.049170728773 -0.027663545683 -0.038930404931 -0.025209054351 -0.059414431453 -0.015004382469
          -0.011483069509 -0.018446929753 -0.066376984119 -0.050380803645 -0.051078949124 -0.063229382038
          -0.036046523601 -0.033159822226 -0.033209007233 -0.044704861939 -0.049325283617 -0.027483714744
          -0.038932424039 -0.025002287701 -0.059721335769 -0.014636068605 -0.011067786254 -0.018143981695
          -0.066796332598 -0.050534579903 -0.05123559013 -0.063540562987 -0.036016542464 -0.033098131418
          -0.033134773374 -0.04477018863 -0.049454562366 -0.027333572507 -0.038934230804 -0.024829626083
          -0.059977855533 -0.014328455552 -0.010720968246 -0.017891043797 -0.067146807909 -0.050660360605
          -0.051363706589 -0.063794888556 -0.035992223769 -0.033047895879 -0.033074237406 -0.044823650271
          -0.049560312182 -0.027211023495 -0.038935836405 -0.024688692763 -0.060187507421 -0.014077299275
          -0.010437828489 -0.017684584484 -0.067433238029 -0.050760477781 -0.051465682685 -0.063997067511
          -0.035973023623 -0.033008188009 -0.033026240766 -0.044866189361 -0.04964446649 -0.027113771066
          -0.03893725574 -0.024576835334 -0.060354117304 -0.013877885416 -0.010213048197 -0.017520755529
          -0.067660883069 -0.050837408751 -0.05154401809 -0.064152225852 -0.035958502442 -0.03297797963
          -0.032989531755 -0.044898863882 -0.049709100276 -0.027039304376 -0.038938477635 -0.024491189048
          -0.060481902212 -0.013725128956 -0.010040917434 -0.01739535667 -0.067835532129 -0.05089385435
          -0.05160150677 -0.064265780151 -0.035948026925 -0.032956074923 -0.03296276927 -0.044922824949
          -0.049756519496 -0.026984937489 -0.038939498365 -0.024428658187 -0.060575410724 -0.013613574207
          -0.0099152419716 -0.017303865403 -0.067963302135 -0.050932649523 -0.051641050726 -0.064343616366