<?xml version="1.0"?>
<!--Shaheen-->
<VTKFile type="UnstructuredGrid" version="0.1" byte_order="LittleEndian">
  <UnstructuredGrid>
    <Piece NumberOfPoints="791" NumberOfCells="973">
      <Points>
        <DataArray type="Float32" NumberOfComponents="3" format="ascii">
-0.190211 -0.0618034 -0.866203 -0.17591 0.0347644 -0.761951 -0.166717 -0.0910144 -0.722131 0 -0.0768927 -0.886453 0.190211 -0.0618034 -0.866203 0.166717 -0.0910144 -0.722131 0.17591 0.0347644 -0.761951 -0.190211 0.0618034 -0.866203 -0.181592 0.2 -0.786562 -0.117557 0.161803 -0.847614 0 0.0768927 -0.886453 0.181592 0.2 -0.786562 0.190211 0.0618034 -0.866203 0.117557 0.161803 -0.847614 -0.181592 -0.2 -0.786562 -0.117557 -0.161803 -0.847614 0.181592 -0.2 -0.786562 0.117557 -0.161803 -0.847614 -0.151842 0.1125 -0.6577 0 0.2 -0.792573 0.151842 0.1125 -0.6577 -0.151842 0.225 -0.6577 0.151842 0.225 -0.6577 0.151842 -0.225 -0.6577 0 -0.2 -0.792573 -0.151842 -0.225 -0.6577 0 -7.38343e-17 -0.9 0.888988 -0.0695288 0.4 0.781994 0.0347644 0.4 0.888988 0.0695288 0.4 0.888988 -0.0695288 2.2226e-15 0.781994 0.0347644 2.2357e-15 0.888988 0.0695288 2.2226e-15 0.741126 -0.0910144 0.4 0.741126 -0.0910144 2.24071e-15 0.807252 -0.182029 0.4 0.807252 -0.182029 2.23261e-15 0.568006 0.0347644 0.4 0.542748 0.182029 0.4 0.675 0.1125 0.4 0.568006 0.0347644 2.26191e-15 0.542748 0.182029 2.265e-15 0.675 0.1125 2.2488e-15 0.461012 0.0695288 0.4 0.461012 0.0695288 2.27501e-15 0.675 0 0.4 0.675 0 2.2488e-15 0.608874 -0.0910144 0.4 0.608874 -0.0910144 2.2569e-15 0.675 0.225 0.4 0.675 0.225 2.2488e-15 0.461012 -0.0695288 0.4 0.461012 -0.0695288 2.27501e-15 0.542748 -0.182029 0.4 0.542748 -0.182029 2.265e-15 0.675 -0.225 0.4 0.675 -0.225 2.2488e-15 0.807252 0.182029 0.4 0.807252 0.182029 2.23261e-15 0.888988 -0.0695288 0.8 0.781994 0.0347644 0.8 0.888988 0.0695288 0.8 0.741126 -0.0910144 0.8 0.807252 -0.182029 0.8 0.568006 0.0347644 0.8 0.542748 0.182029 0.8 0.675 0.1125 0.8 0.461012 0.0695288 0.8 0.675 0 0.8 0.608874 -0.0910144 0.8 0.675 0.225 0.8 0.461012 -0.0695288 0.8 0.542748 -0.182029 0.8 0.675 -0.225 0.8 0.807252 0.182029 0.8 0.888988 -0.0695288 1.2 0.781994 0.0347644 1.2 0.888988 0.0695288 1.2 0.741126 -0.0910144 1.2 0.807252 -0.182029 1.2 0.568006 0.0347644 1.2 0.542748 0.182029 1.2 0.675 0.1125 1.2 0.461012 0.0695288 1.2 0.675 0 1.2 0.608874 -0.0910144 1.2 0.675 0.225 1.2 0.461012 -0.0695288 1.2 0.542748 -0.182029 1.2 0.675 -0.225 1.2 0.807252 0.182029 1.2 0.888988 -0.0695288 1.6 0.781994 0.0347644 1.6 0.888988 0.0695288 1.6 0.741126 -0.0910144 1.6 0.807252 -0.182029 1.6 0.568006 0.0347644 1.6 0.542748 0.182029 1.6 0.675 0.1125 1.6 0.461012 0.0695288 1.6 0.675 0 1.6 0.608874 -0.0910144 1.6 0.675 0.225 1.6 0.461012 -0.0695288 1.6 0.542748 -0.182029 1.6 0.675 -0.225 1.6 0.807252 0.182029 1.6 0.888988 -0.0695288 2 0.781994 0.0347644 2 0.888988 0.0695288 2 0.741126 -0.0910144 2 0.807252 -0.182029 2 0.568006 0.0347644 2 0.542748 0.182029 2 0.675 0.1125 2 0.461012 0.0695288 2 0.675 0 2 0.608874 -0.0910144 2 0.675 0.225 2 0.461012 -0.0695288 2 0.542748 -0.182029 2 0.675 -0.225 2 0.807252 0.182029 2 0.888988 -0.0695288 2.4 0.781994 0.0347644 2.4 0.888988 0.0695288 2.4 0.741126 -0.0910144 2.4 0.807252 -0.182029 2.4 0.568006 0.0347644 2.4 0.542748 0.182029 2.4 0.675 0.1125 2.4 0.461012 0.0695288 2.4 0.675 0 2.4 0.608874 -0.0910144 2.4 0.675 0.225 2.4 0.461012 -0.0695288 2.4 0.542748 -0.182029 2.4 0.675 -0.225 2.4 0.807252 0.182029 2.4 0.888988 -0.0695288 2.8 0.781994 0.0347644 2.8 0.888988 0.0695288 2.8 0.741126 -0.0910144 2.8 0.807252 -0.182029 2.8 0.568006 0.0347644 2.8 0.542748 0.182029 2.8 0.675 0.1125 2.8 0.461012 0.0695288 2.8 0.675 0 2.8 0.608874 -0.0910144 2.8 0.675 0.225 2.8 0.461012 -0.0695288 2.8 0.542748 -0.182029 2.8 0.675 -0.225 2.8 0.807252 0.182029 2.8 0.888988 -0.0695288 3.2 0.781994 0.0347644 3.2 0.888988 0.0695288 3.2 0.741126 -0.0910144 3.2 0.807252 -0.182029 3.2 0.568006 0.0347644 3.2 0.542748 0.182029 3.2 0.675 0.1125 3.2 0.461012 0.0695288 3.2 0.675 0 3.2 0.608874 -0.0910144 3.2 0.675 0.225 3.2 0.461012 -0.0695288 3.2 0.542748 -0.182029 3.2 0.675 -0.225 3.2 0.807252 0.182029 3.2 0.888988 -0.0695288 3.6 0.781994 0.0347644 3.6 0.888988 0.0695288 3.6 0.741126 -0.0910144 3.6 0.807252 -0.182029 3.6 0.568006 0.0347644 3.6 0.542748 0.182029 3.6 0.675 0.1125 3.6 0.461012 0.0695288 3.6 0.675 0 3.6 0.608874 -0.0910144 3.6 0.675 0.225 3.6 0.461012 -0.0695288 3.6 0.542748 -0.182029 3.6 0.675 -0.225 3.6 0.807252 0.182029 3.6 0.888988 -0.0695288 4 0.781994 0.0347644 4 0.888988 0.0695288 4 0.741126 -0.0910144 4 0.807252 -0.182029 4 0.568006 0.0347644 4 0.542748 0.182029 4 0.675 0.1125 4 0.461012 0.0695288 4 0.675 0 4 0.608874 -0.0910144 4 0.675 0.225 4 0.461012 -0.0695288 4 0.542748 -0.182029 4 0.675 -0.225 4 0.807252 0.182029 4 0.888988 -0.0695288 4.4 0.781994 0.0347644 4.4 0.888988 0.0695288 4.4 0.741126 -0.0910144 4.4 0.807252 -0.182029 4.4 0.568006 0.0347644 4.4 0.542748 0.182029 4.4 0.675 0.1125 4.4 0.461012 0.0695288 4.4 0.675 0 4.4 0.608874 -0.0910144 4.4 0.675 0.225 4.4 0.461012 -0.0695288 4.4 0.542748 -0.182029 4.4 0.675 -0.225 4.4 0.807252 0.182029 4.4 0.888988 -0.0695288 4.8 0.781994 0.0347644 4.8 0.888988 0.0695288 4.8 0.741126 -0.0910144 4.8 0.807252 -0.182029 4.8 0.568006 0.0347644 4.8 0.542748 0.182029 4.8 0.675 0.1125 4.8 0.461012 0.0695288 4.8 0.675 0 4.8 0.608874 -0.0910144 4.8 0.675 0.225 4.8 0.461012 -0.0695288 4.8 0.542748 -0.182029 4.8 0.675 -0.225 4.8 0.807252 0.182029 4.8 0.888988 -0.0695288 5.2 0.781994 0.0347644 5.2 0.888988 0.0695288 5.2 0.741126 -0.0910144 5.2 0.807252 -0.182029 5.2 0.568006 0.0347644 5.2 0.542748 0.182029 5.2 0.675 0.1125 5.2 0.461012 0.0695288 5.2 0.675 0 5.2 0.608874 -0.0910144 5.2 0.675 0.225 5.2 0.461012 -0.0695288 5.2 0.542748 -0.182029 5.2 0.675 -0.225 5.2 0.807252 0.182029 5.2 0.888988 -0.0695288 5.6 0.781994 0.0347644 5.6 0.888988 0.0695288 5.6 0.741126 -0.0910144 5.6 0.807252 -0.182029 5.6 0.568006 0.0347644 5.6 0.542748 0.182029 5.6 0.675 0.1125 5.6 0.461012 0.0695288 5.6 0.675 0 5.6 0.608874 -0.0910144 5.6 0.675 0.225 5.6 0.461012 -0.0695288 5.6 0.542748 -0.182029 5.6 0.675 -0.225 5.6 0.807252 0.182029 5.6 0.888988 -0.0695288 6 0.781994 0.0347644 6 0.888988 0.0695288 6 0.741126 -0.0910144 6 0.807252 -0.182029 6 0.568006 0.0347644 6 0.542748 0.182029 6 0.675 0.1125 6 0.461012 0.0695288 6 0.675 0 6 0.608874 -0.0910144 6 0.675 0.225 6 0.461012 -0.0695288 6 0.542748 -0.182029 6 0.675 -0.225 6 0.807252 0.182029 6 0.888988 -0.0695288 6.4 0.781994 0.0347644 6.4 0.888988 0.0695288 6.4 0.741126 -0.0910144 6.4 0.807252 -0.182029 6.4 0.568006 0.0347644 6.4 0.542748 0.182029 6.4 0.675 0.1125 6.4 0.461012 0.0695288 6.4 0.675 0 6.4 0.608874 -0.0910144 6.4 0.675 0.225 6.4 0.461012 -0.0695288 6.4 0.542748 -0.182029 6.4 0.675 -0.225 6.4 0.807252 0.182029 6.4 0.888988 -0.0695288 6.8 0.781994 0.0347644 6.8 0.888988 0.0695288 6.8 0.741126 -0.0910144 6.8 0.807252 -0.182029 6.8 0.568006 0.0347644 6.8 0.542748 0.182029 6.8 0.675 0.1125 6.8 0.461012 0.0695288 6.8 0.675 0 6.8 0.608874 -0.0910144 6.8 0.675 0.225 6.8 0.461012 -0.0695288 6.8 0.542748 -0.182029 6.8 0.675 -0.225 6.8 0.807252 0.182029 6.8 0.888988 -0.0695288 7.2 0.781994 0.0347644 7.2 0.888988 0.0695288 7.2 0.741126 -0.0910144 7.2 0.807252 -0.182029 7.2 0.568006 0.0347644 7.2 0.542748 0.182029 7.2 0.675 0.1125 7.2 0.461012 0.0695288 7.2 0.675 0 7.2 0.608874 -0.0910144 7.2 0.675 0.225 7.2 0.461012 -0.0695288 7.2 0.542748 -0.182029 7.2 0.675 -0.225 7.2 0.807252 0.182029 7.2 0.888988 -0.0695288 7.6 0.781994 0.0347644 7.6 0.888988 0.0695288 7.6 0.741126 -0.0910144 7.6 0.807252 -0.182029 7.6 0.568006 0.0347644 7.6 0.542748 0.182029 7.6 0.675 0.1125 7.6 0.461012 0.0695288 7.6 0.675 0 7.6 0.608874 -0.0910144 7.6 0.675 0.225 7.6 0.461012 -0.0695288 7.6 0.542748 -0.182029 7.6 0.675 -0.225 7.6 0.807252 0.182029 7.6 0.695729 -0.0695288 -0.553408 0.611995 0.0347644 -0.486803 0.695729 0.0695288 -0.553408 0.580011 -0.0910144 -0.461362 0.631762 -0.182029 -0.502526 0.444526 0.0347644 -0.353592 0.424759 0.182029 -0.337869 0.528261 0.1125 -0.420197 0.360792 0.0695288 -0.286987 0.528261 0 -0.420197 0.47651 -0.0910144 -0.379033 0.528261 0.225 -0.420197 0.360792 -0.0695288 -0.286987 0.424759 -0.182029 -0.337869 0.528261 -0.225 -0.420197 0.631762 0.182029 -0.502526 0.127774 0.0347644 -0.553448 0.122092 0.182029 -0.528838 0.103705 0.0695288 -0.449197 0.151842 0 -0.6577 0.136967 -0.0910144 -0.593269 0.103705 -0.0695288 -0.449197 0.122092 -0.182029 -0.528838 -0.888988 -0.0695288 2.2226e-15 -0.781994 0.0347644 2.2357e-15 -0.888988 0.0695288 2.2226e-15 -0.888988 -0.0695288 0.4 -0.781994 0.0347644 0.4 -0.888988 0.0695288 0.4 -0.741126 -0.0910144 2.24071e-15 -0.741126 -0.0910144 0.4 -0.807252 -0.182029 2.23261e-15 -0.807252 -0.182029 0.4 -0.568006 0.0347644 2.26191e-15 -0.542748 0.182029 2.265e-15 -0.675 0.1125 2.2488e-15 -0.568006 0.0347644 0.4 -0.542748 0.182029 0.4 -0.675 0.1125 0.4 -0.461012 0.0695288 2.27501e-15 -0.461012 0.0695288 0.4 -0.675 0 2.2488e-15 -0.675 0 0.4 -0.608874 -0.0910144 2.2569e-15 -0.608874 -0.0910144 0.4 -0.675 0.225 2.2488e-15 -0.675 0.225 0.4 -0.461012 -0.0695288 2.27501e-15 -0.461012 -0.0695288 0.4 -0.542748 -0.182029 2.265e-15 -0.542748 -0.182029 0.4 -0.675 -0.225 2.2488e-15 -0.675 -0.225 0.4 -0.807252 0.182029 2.23261e-15 -0.807252 0.182029 0.4 -0.888988 -0.0695288 0.8 -0.781994 0.0347644 0.8 -0.888988 0.0695288 0.8 -0.741126 -0.0910144 0.8 -0.807252 -0.182029 0.8 -0.568006 0.0347644 0.8 -0.542748 0.182029 0.8 -0.675 0.1125 0.8 -0.461012 0.0695288 0.8 -0.675 0 0.8 -0.608874 -0.0910144 0.8 -0.675 0.225 0.8 -0.461012 -0.0695288 0.8 -0.542748 -0.182029 0.8 -0.675 -0.225 0.8 -0.807252 0.182029 0.8 -0.888988 -0.0695288 1.2 -0.781994 0.0347644 1.2 -0.888988 0.0695288 1.2 -0.741126 -0.0910144 1.2 -0.807252 -0.182029 1.2 -0.568006 0.0347644 1.2 -0.542748 0.182029 1.2 -0.675 0.1125 1.2 -0.461012 0.0695288 1.2 -0.675 0 1.2 -0.608874 -0.0910144 1.2 -0.675 0.225 1.2 -0.461012 -0.0695288 1.2 -0.542748 -0.182029 1.2 -0.675 -0.225 1.2 -0.807252 0.182029 1.2 -0.888988 -0.0695288 1.6 -0.78199
[...]
      <PointData>
        <DataArray type="Float32" Name="displacement" NumberOfComponents="3" format="ascii">
-0.000256452 0.860012 0.0119055 0.000769664 0.879254 -0.00577279 -0.00166359 0.885086 0.0138806 5.67204e-05 0.852305 0.0155894 0.000361015 0.860014 0.0119076 0.0017743 0.88506 0.0138915 -0.000663496 0.879283 -0.00580249 0.000369758 0.85968 -0.0118785 0.00221115 0.87438 -0.029408 0.000877886 0.861362 -0.0310947 5.20516e-05 0.851953 -0.0157694 -0.00211599 0.874407 -0.0293761 -0.000259343 0.859695 -0.011895 -0.000773257 0.861366 -0.0310849 -0.00219275 0.873927 0.0296449 -0.000982026 0.861283 0.0310493 0.00229662 0.873906 0.0296639 0.00109187 0.861273 0.0310441 0.00220594 0.892571 -0.0152117 5.4397e-05 0.874785 -0.0358366 -0.00209587 0.892588 -0.0151823 0.00371011 0.891485 -0.0302963 -0.00360774 0.891541 -0.0302532 0.00374857 0.891673 0.0300123 5.49852e-05 0.874412 0.035682 -0.00364549 0.891755 0.0299698 5.50846e-05 0.848802 0.000170423 0.0118337 0.808565 -0.0224625 -0.00592009 0.791047 0.0114303 -0.0121669 0.808605 0.0228118 0.0114907 0.916986 -0.0149628 -0.00568155 0.899248 0.00777911 -0.0117564 0.917085 0.0152958 0.0146677 0.784103 -0.0293389 0.0140868 0.892392 -0.0196741 0.0302945 0.793796 -0.0591169 0.0290687 0.902304 -0.0391542 -0.00536463 0.757494 0.0114573 -0.0272664 0.752414 0.0594752 -0.0179283 0.773413 0.036641 -0.00500101 0.866708 0.00741805 -0.0253365 0.861376 0.0380713 -0.0170057 0.881872 0.0244207 -0.0100939 0.74159 0.0228732 -0.00915731 0.851483 0.0142873 -0.000153431 0.773941 0.000161427 -0.000129562 0.88244 0.00015602 0.0137732 0.763374 -0.0293928 0.0129836 0.87221 -0.0191343 -0.0356964 0.771882 0.0734133 -0.0338697 0.880299 0.0482152 0.0098094 0.741538 -0.022536 0.00899266 0.851434 -0.0140577 0.0269139 0.752425 -0.0592012 0.0250062 0.861323 -0.0377537 0.0353875 0.771919 -0.0730474 0.033588 0.880342 -0.0479631 -0.030559 0.793804 0.0593927 -0.0292587 0.902272 0.0396213 0.0120389 0.657753 -0.0292463 -0.00603444 0.639608 0.0148092 -0.0123342 0.6578 0.0295487 0.0150614 0.632498 -0.0382141 0.0309044 0.642807 -0.0768466 -0.00555855 0.604735 0.0148276 -0.0283773 0.599684 0.0771634 -0.0184468 0.621444 0.0475945 -0.0105753 0.588019 0.0296032 -0.000137547 0.621883 0.000162018 0.0142913 0.610947 -0.0382039 -0.0367523 0.620214 0.0953719 0.0103293 0.587981 -0.0292261 0.0280657 0.599682 -0.0768608 0.0364741 0.620243 -0.0949912 -0.031145 0.642811 0.0771069 0.0121742 0.47143 -0.0343381 -0.00608635 0.452986 0.0173181 -0.0123564 0.471458 0.0346203 0.0154753 0.445816 -0.0448023 0.0314718 0.456609 -0.0901538 -0.00577594 0.416992 0.0173532 -0.0297948 0.412126 0.0904071 -0.019008 0.43451 0.0557322 -0.0112006 0.399481 0.0346833 -8.4272e-05 0.434798 0.000164253 0.0149739 0.42357 -0.0447808 -0.0379357 0.433688 0.111766 0.0110489 0.399455 -0.0342613 0.0296017 0.412129 -0.0900958 0.0377655 0.433708 -0.111362 -0.0316159 0.456612 0.0903759 0.0122607 0.26165 -0.0371567 -0.00608888 0.242936 0.0187126 -0.0122761 0.261661 0.0374226 0.0158613 0.23574 -0.0484638 0.0318949 0.247071 -0.0975232 -0.00596701 0.205865 0.0187578 -0.0311843 0.201247 0.0977872 -0.0194956 0.224214 0.0602574 -0.0118239 0.187515 0.0375163 -5.08725e-06 0.224326 0.000165834 0.0156647 0.21283 -0.0484347 -0.038985 0.223894 0.120883 0.0118215 0.187506 -0.0370654 0.0311646 0.201248 -0.0974689 0.0389736 0.223902 -0.120464 -0.0318963 0.247072 0.0977283 0.0123078 0.0426172 -0.037396 -0.00605547 0.0236997 0.018826 -0.012126 0.0426097 0.0376567 0.0162187 0.0165081 -0.0487637 0.032229 0.0283674 -0.0981463 -0.00614253 -0.0143908 0.0188771 -0.0325665 -0.0187152 0.0984079 -0.019936 0.00478858 0.0606305 -0.0124481 -0.0335703 0.0377589 8.89427e-05 0.00470762 0.000167474 0.0163601 -0.00703307 -0.0487327 -0.0399614 0.00501588 0.121651 0.0126226 -0.0335625 -0.0372939 0.0327514 -0.0187139 -0.0980828 0.040139 0.00501112 -0.121225 -0.0320581 0.0283669 0.0983447 0.0123383 -0.170096 -0.034936 -0.00600861 -0.189187 0.0176019 -0.0119514 -0.170122 0.0352001 0.0165542 -0.196362 -0.0455519 0.0325125 -0.183991 -0.0917067 -0.00630448 -0.228232 0.0176518 -0.0338919 -0.232256 0.0919741 -0.0203404 -0.208254 0.0566639 -0.0130487 -0.248212 0.0353008 0.000186834 -0.208529 0.00016896 0.0170334 -0.220493 -0.0455208 -0.0408675 -0.207478 0.113695 0.013408 -0.248187 -0.0348353 0.034289 -0.232255 -0.0916444 0.0412416 -0.207496 -0.11327 -0.032162 -0.183994 0.0919119 0.0123701 -0.360897 -0.0298786 -0.00596581 -0.380153 0.0150894 -0.0117922 -0.360941 0.0301545 0.0168683 -0.387314 -0.0389595 0.0327827 -0.374469 -0.0784724 -0.00645456 -0.420089 0.0151335 -0.0351225 -0.423836 0.078751 -0.0207175 -0.399368 0.0485208 -0.0136051 -0.440812 0.0302431 0.000278003 -0.399822 0.000170353 0.0176596 -0.411997 -0.0389324 -0.0417128 -0.398086 0.0973444 0.0141368 -0.440771 -0.0297901 0.035717 -0.423834 -0.0784177 0.04227 -0.398116 -0.0969268 -0.0322648 -0.374473 0.0786962 0.0124204 -0.515401 -0.0225289 -0.005944 -0.534832 0.01144 -0.0116853 -0.515459 0.0228238 0.0171633 -0.541997 -0.0293833 0.0330738 -0.52873 -0.0592412 -0.00659466 -0.575593 0.0114734 -0.0362227 -0.579118 0.0595353 -0.0210763 -0.554211 0.0366908 -0.0140989 -0.59698 0.022891 0.000353005 -0.554815 0.000171634 0.0182165 -0.56719 -0.0293627 -0.0425051 -0.552505 0.0735843 0.0147721 -0.596925 -0.0224618 0.03698 -0.579116 -0.0591997 0.0432129 -0.552544 -0.0731803 -0.0324183 -0.528736 0.0594938 0.0125026 -0.621536 -0.0133657 -0.00595677 -0.641173 0.00689078 -0.0116603 -0.621604 0.0136853 0.0174405 -0.64837 -0.0174459 0.0334128 -0.634746 -0.0352656 -0.00672636 -0.682692 0.00690984 -0.0371642 -0.68607 0.0355786 -0.0214238 -0.660748 0.0219435 -0.0145151 -0.704642 0.0137237 0.000403984 -0.661463 0.000172807 0.0186861 -0.674031 -0.0174341 -0.043251 -0.658729 0.0439624 0.015284 -0.704576 -0.0133273 0.0380327 -0.686069 -0.0352418 0.0440612 -0.658776 -0.0435765 -0.0326645 -0.634752 0.0355548 0.0126255 -0.670447 -0.0029989 -0.00601385 -0.690331 0.0017442 -0.0117379 -0.670522 0.00334722 0.0177003 -0.697595 -0.00394102 0.0338177 -0.683688 -0.00814176 -0.00685113 -0.732539 0.0017465 -0.0379274 -0.735865 0.00847556 -0.0217652 -0.710146 0.00525928 -0.0148436 -0.754938 0.00335196 0.000425135 -0.710924 0.000173871 0.0190554 -0.723682 -0.00393961 -0.0439549 -0.70795 0.0104507 0.0156513 -0.754867 -0.00299418 0.0388435 -0.735864 -0.00813883 0.0448076 -0.708001 -0.0100858 -0.0330323 -0.683694 0.00847264 0.0127922 -0.657111 0.00788311 -0.00612046 -0.677287 -0.00365848 -0.0119284 -0.657187 -0.00750413 0.0179417 -0.684657 0.0102359 0.0342955 -0.670546 0.0203293 -0.00697035 -0.720115 -0.00367415 -0.0385037 -0.72349 -0.0199744 -0.0221033 -0.697393 -0.0122554 -0.0150805 -0.742844 -0.00753547 0.000412988 -0.698182 0.000174825 0.0193172 -0.711128 0.0102262 -0.0446191 -0.695164 -0.0247255 0.0158632 -0.742772 0.00785176 0.0393965 -0.723488 0.0203099 0.0454476 -0.695216 0.0250686 -0.0335354 -0.670553 -0.019955 0.0129995 -0.580624 0.0185738 -0.0062769 -0.601135 -0.00896697 -0.0122304 -0.580696 -0.0181642 0.0181625 -0.60865 0.0241657 0.0348413 -0.594412 0.0482987 -0.00708538 -0.644513 -0.00900051 -0.0388963 -0.648035 -0.0479242 -0.0224388 -0.62158 -0.0294648 -0.0152285 -0.667452 -0.0182314 0.000366531 -0.62233 0.000175667 0.019471 -0.63546 0.0241449 -0.0452435 -0.61946 -0.059282 0.0159203 -0.667384 0.0185066 0.0396929 -0.648034 0.0482572 0.045979 -0.61951 0.0596046 -0.0341708 -0.594418 -0.0478826 0.0132376 -0.444126 0.0284115 -0.00647869 -0.465006 -0.0138533 -0.0126314 -0.44419 -0.0279729 0.018359 -0.472698 0.0369876 0.0354379 -0.458405 0.0740348 -0.00719768 -0.508863 -0.0139034 -0.0391203 -0.512619 -0.0736437 -0.0227696 -0.485828 -0.0453056 -0.0152967 -0.531903 -0.0280734 0.000287141 -0.486496 0.000176399 0.0195226 -0.499804 0.0369566 -0.0458259 -0.483944 -0.0910792 0.0158344 -0.531842 0.028311 0.039751 -0.512617 0.0739726 0.0464023 -0.483988 0.0913846 -0.0349191 -0.458411 -0.0735815 0.0134907 -0.254361 0.0368411 -0.00671689 -0.275629 -0.0180423 -0.0131078 -0.254413 -0.0363765 0.0185255 -0.283519 0.04798 0.0360561 -0.269232 0.0960846 -0.00730893 -0.319892 -0.0181067 -0.0392027 -0.323948 -0.0956816 -0.0230919 -0.29685 -0.0588861 -0.0153014 -0.342938 -0.0365058 0.000178312 -0.297399 0.000177018 0.0194837 -0.310876 0.0479402 -0.0463617 -0.2953 -0.118322 0.0156279 -0.342888 0.0367119 0.0396057 -0.323947 0.0960047 0.0467201 -0.295336 0.118615 -0.0357451 -0.269237 -0.0956017 0.0137369 -0.0208894 0.043471 -0.00697883 -0.0425426 -0.0213403 -0.013627 -0.0209283 -0.0429846 0.0186551 -0.0506384 0.0566345 0.0366562 -0.0364038 0.113423 -0.00742132 -0.0871385 -0.0214161 -0.0391811 -0.0915299 -0.113014 -0.0234002 -0.0641595 -0.0695782 -0.0152644 -0.11012 -0.0431365 4.51971e-05 -0.0645705 0.000177526 0.0193712 -0.0782008 0.0565877 -0.0468453 -0.063004 -0.139744 0.0153324 -0.110083 0.0433191 0.039306 -0.0915291 0.113329 0.046937 -0.0630308 0.140032 -0.0365997 -0.0364075 -0.11292 0.0139493 0.24501 0.0481221 -0.00724923 0.223002 -0.0236592 -0.0141488 0.244985 -0.0476183 0.018739 0.21471 0.0627198 0.0371893 0.228865 0.125582 -0.00753759 0.178147 -0.0237429 -0.0391018 0.173418 -0.125174 -0.023688 0.201018 -0.0770961 -0.0152133 0.155274 -0.0477862 -0.000106024 0.20075 0.000177921 0.0192056 0.186987 0.062668 -0.0472697 0.201768 -0.154765 0.0149868 0.155298 0.0479543 0.038912 0.173419 0.125478 0.0470585 0.20175 0.155057 -0.0374233 0.228862 -0.12507 0.0140961 0.53169 0.0508667 -0.0075108 0.509389 -0.0250354 -0.0146277 0.531678 -0.0503495 0.018766 0.500931 0.0663313 0.0375985 0.515 0.132748 -0.00766204 0.464348 -0.0251238 -0.0390196 0.459325 -0.132349 -0.0239486 0.487101 -0.0815578 -0.0151804 0.441595 -0.0505268 -0.000268918 0.48696 0.000178204 0.0190108 0.473094 0.0662767 -0.0476281 0.487487 -0.16362 0.0146353 0.441607 0.0506895 0.0384929 0.459325 0.132639 0.0470908 0.487478 0.163923 -0.0381474 0.514998 -0.132239 0.0141443 0.828677 0.0520536 -0.00774762 0.806175 -0.0256454 -0.0150179 0.828673 -0.0515244 0.0187256 0.797601 0.0679323 0.0378246 0.8116 0.135831 -0.00779889 0.761022 -0.0257359 -0.0389913 0.755787 -0.135451 -0.024176 0.783678 -0.0835355 -0.0151999 0.738367 -0.0517057 -0.000437668 0.78363 0.000178372 0.0188086 0.769695 0.0678763 -0.0479144 0.783801 -0.167429 0.0143225 0.738371 0.0518723 0.0381191 0.755787 0.135719 0.0470392 0.783798 0.167757 -0.038703 0.811599 -0.135339 0.0140522 1.12834 0.0523312 -0.00794179 1.10577 -0.0257987 -0.0152679 1.12834 -0.0517954 0.0185998 1.09715 0.0683348 0.0377952 1.11112 0.136543 -0.00795751 1.06058 -0.0258898 -0.0390864 1.05526 -0.136177 -0.024366 1.08319 -0.0840327 -0.0153147 1.03796 -0.0519776 -0.000608034 1.08318 0.000178432 0.0186253 1.06922 0.0682785 -0.0481239 1.08322 -0.168307 0.0140982 1.03796 0.0521489 0.037871 1.05526 0.13643 0.0469079 1.08322 0.168653 -0.039012 1.11112 -0.136064 0.00710723 0.955374 -0.00713261 -0.00351927 0.938406 0.00344526 -0.0070981 0.955542 0.00752612 0.00908577 0.932194 -0.00779789 0.0187797 0.941783 -0.0173181 -0.00330409 0.91043 0.0024952 -0.0169641 0.905892 0.0125472 -0.0110608 0.923164 0.00891471 -0.00622234 0.897538 0.0043885 -2.20591e-05 0.923634 0.000137673 0.00866643 0.915042 -0.00644084 -0.0222485 0.922164 0.0180363 0.00613147 0.897556 -0.00430807 0.0168567 0.905826 -0.0123359 0.0220827 0.922125 -0.0176719 -0.0187873 0.941578 0.017466 -0.000536546 0.902792 -0.0040613 -0.00311816 0.905321 -0.0209963 -0.00134823 0.912008 -0.00736923 1.2893e-05 0.892719 -2.68327e-05 0.00146048 0.899069 0.011067 0.00129342 0.912087 0.00743782 0.00320963 0.905432 0.0211513 -0.0114083 0.916999 -0.0149837 0.00576525 0.899258 0.00776188 0.0118399 0.917097 0.0152757 -0.0117628 0.808579 -0.0224849 0.00599162 0.791061 0.0114111 0.0122386 0.808619 0.0227892 -0.0140038 0.892405 -0.0196921 -0.014597 0.784115 -0.0293563 -0.0289879 0.902317 -0.0391726 -0.0302239 0.793808 -0.0591371 0.0050846 0.866719 0.00740491 0.0254203 0.861387 0.0380589 0.0170894 0.881882 0.024403 0.00543615 0.757506 0.0114452 0.0273387 0.752425 0.0594639 0.0180004 0.773425 0.0366258 0.00924078 0.851493 0.0142765 0.0101656 0.741601 0.0228647 0.000213634 0.882451 0.000140085 0.000224658 0.773953 0.000146055 -0.0129 0.872221 -0.0191476 -0.0137025 0.763386 -0.0294061 0.0339527 0.880308 0.0481983 0.0357694 0.771894 0.0733977 -0.0089097 0.851444 -0.0140676 -0.00973842 0.741549 -0.0225445 -0.0249245 0.861333 -0.0377639 -0.0268433 0.752437 -0.0592128 -0.0335079 0.880357 -0.0479774 -0.035317 0.77193 -0.0730634 0.0293414 0.902283 0.0396004 0.0306319 0.793817 0.0593731 -0.0119825 0.657765 -0.0292709 0.00609161 0.639619 0.0147895 0.0123916 0.657811 0.0295251 -0.015005 0.632509 -0.0382331 -0.0308487 0.642818 -0.0768686 0.00561571 0.604745 0.0148162 0.0284354 0.599694 0.0771541 0.0185045 0.621455 0.0475794 0.0106325 0.588028 0.0295963 0.000194568 0.621894 0.000146239 -0.0142347 0.610958 -0.0382177 0.0368106 0.620225 0.0953578 -0.0102727 0.58799 -0.029234 -0.0280097 0.599692 -0.0768726 -0.0364184 0.620254 -0.0950084 0.031203 0.642822 0.0770873 -0.0121345 0.471438 -0.0343642 0.00612673 0.452993 0.0172979 0.012397 0.471466 0.0345958 -0.0154357 0.445823 -0.0448221 -0.0314328 0.456617 -0.0901776 0.00581633 0.416998 0.0173423 0.029836 0.412132 0.090399 0.0190489 0.434516 0.0557175 0.0112412 0.399487 0.0346775 0.000124463 0.434805 0.000148333 -0.0149342 0.423576 -0.0447948 0.0379773 0.433695 0.111752 -0.0110091 0.399461 -0.0342686 -0.0295625 0.412135 -0.090108 -0.0377266 0.433715 -0.11138 0.0316573 0.45662 0.0903562 -0.0122393 0.261653 -0.0371836 0.00611096 0.242938 0.0186921 0.0122984 0.261664 0.0373976 -0.01584 0.235742 -0.0484842 -0.0318742 0.247074 -0.097548 0.0059891 0.205866 0.0187472 0.0312072 0.201248 0.0977798 0.0195182 0.224215 0.0602429 0.0118461 0.187516 0.0375111 2.69665e-05 0.224328 0.000149748 -0.0156433 0.212831 -0.048449 0.0390083 0.223895 0.12087 -0.0118001 0.187506 -0.0370726 -0.0311438 0.201249 -0.0974815 -0.0389531 0.223903 -0.120484 0.0319193 0.247075 0.0977086 -0.0123051 0.0426139 -0.0374231 0.00605879 0.0236958 0.0188054 0.0121295 0.0426064 0.0376317 -0.0162161 0.0165039 -0.0487843 -0.0322271 0.0283636 -0.0981714 0.00614587 -0.0143961 0.0188663 0.0325708 -0.0187206 0.0984005 0.0199398 0.00478399 0.060616 0.0124517 -0.0335763 0.0377536 -8.58381e-05 0.00470302 0.000151231 -0.0163576 -0.00703811 -0.0487473 0.0399659 0.00501129 0.121638 -0.0126199 -0.0335685 -0.0373014 -0.0327494 -0.0187194 -0.0980958 -0.0401373 0.00500648 -0.121245 0.0320624 0.0283631 0.0983252 -0.0123536 -0.170106 -0.0349626 0.00599391 -0.189197 0.0175815 0.0119369 -0.170132 0.0351756 -0.0165697 -0.196372 -0.0455725 -0.0325286 -0.184001 -0.0917315 0.00628981 -0.228244 0.0176405 0.0338782 -0.232267 0.0919661 0.0203262 -0.208265 0.0566492 0.0130343 -0.248225 0.0352946 -0.000201762 -0.20854 0.000152573 -0.017049 -0.220505 -0.0455358 0.0408539 -0.207489 0.113682 -0.0134233 -0.248199 -0.0348436 -0.0343051 -0.232266 -0.0916579 -0.0412581 -0.207507 -0.11329 0.0321482 -0.184004 0.0918927 -0.0124014 -0.360913 -0.0299038 0.00593505 -0.380169 0.0150695 0.0117618 -0.360956 0.0301311 -0.0168999 -0.38733 -0.0389796 -0.0328149 -0.374485 -0.0784962 0.00642383 -0.420106 0.0151213 0.0350927 -0.423853 0.0787416 0.0206872 -0.399385 0.0485057 0.0135748 -0.44083 0.0302352 -0.000309009 -0.399839 0.00015383 -0.0176912 -0.412014 -0.0389477 0.0416832 -0.398103 0.0973308 -0.0141681 -0.440789 -0.0297998 -0.0357493 -0.423852 -0.0784318 -0.0423026 -0.398132 -0.0969463 0.0322349 -0.374489 0.0786773 -0.0124646 -0.515421 -0.0225521 0.00590026 -0.534853 0.0114208 0.0116419 -0.515479 0.022802 -0.0172079 -0.542018 -0.0294027 -0.033119 -0.528751 -0.0592633 0.00655096 -0.575615 0.01146 0.03618 -0.57914 0.0595241 0.021033 -0.554233 0.0366753 0.0140556 -0.597003 0.0228809 -0.000397004 -0.554837 0.000154987 -0.0182612 -0.567212 -0.0293784 0.0424625 -0.552526 0.0735699 -0.0148165 -0.596948 -0.0224733 -0.0370253 -0.579139 -0.0592145 -0.0432586 -0.552565 -0.0731991 0.0323755 -0.528756 0.0594754 -0.0125558 -0.621559 -0.0133863 0.00590407 -0.641197 0.00687247 0.0116079 -0.621628 0.0136654 -0.0174941 -0.648394 -0.0174643 -0.033467 -0.634769 -0.0352856 0.00667371 -0.682717 0.00689503 0.0371125 -0.686096 0.035565 0.0213715 -0.660773 0.0219274 0.0144628 -0.704668 0.0137109 -0.000456942 -0.661487 0.000156047 -0.0187398 -0.674056 -0.0174503 0.0431994 -0.658754 0.0439469 -0.0153373 -0.704602 -0.0133409 -0.038087 -0.686095 -0.0352575 -0.0441158 -0.658801 -0.0435945 0.0326127 -0.634776 0.035537 -0.012683 -0.670471 -0.00301671 0.00595694 -0.690356 0.00172692 0.0116813 -0.670546 0.00332953 -0.0177581 -0.69762 -0.00395823 -0.0338761 -0.683712 -0.00815932 0.00679426 -0.732566 0.0017301 0.0378715 -0.735892 0.0084594 0.0217087 -0.710172 0.00524251 0.0147872 -0.754966 0.00333605 -0.000482322 -0.71095 0.000157007 -0.0191132 -0.723709 -0.00395627 0.0438991 -0.707976 0.0104341 -0.0157088 -0.754895 -0.00301022 -0.0389021 -0.735891 -0.00815529 -0.0448665 -0.708027 -0.0101028 0.0329763 -0.68372 0.00845538 -0.0128488 -0.657135 0.00786832 0.00606444 -0.677311 -0.00367466 0.0118727 -0.657211 -0.00751953 -0.0179986 -0.684682 0.0102199 -0.0343531 -0.67057 0.0203143 0.00691438 -0.720141 -0.00369218 0.0384487 -0.723516 -0.0199933 0.0220478 -0.697418 -0.0122728 0.015025 -0.742871 -0.0075546 -0.000469284 -0.698207 0.000157868 -0.0193742 -0.711154 0.0102091 0.0445642 -0.69519 -0.0247434 -0.0159198 -0.742799 0.00783325 -0.0394542 -0.723515 0.0202926 -0.0455057 -0.695241 0.0250527 0.0334802 -0.670577 -0.0199716 -0.01305 -0.580645 0.018562 0.00622695 -0.601157 -0.00898208 0.0121808 -0.580717 -0.0181773 -0.0182134 -0.608672 0.0241509 -0.0348928 -0.594433 0.0482863 0.00703547 -0.644537 -0.00902016 0.0388474 -0.648058 -0.0479458 0.0223893 -0.621602 -0.0294829 0.015179 -0.667476 -0.0182537 -0.000416758 -0.622353 0.000158629 -0.0195219 -0.635483 0.0241274 0.0451947 -0.619483 -0.0593012 -0.0159709 -0.667408 0.0184857 -0.0397445 -0.648057 0.0482391 -0.046031 -0.619532 0.0595898 0.0341218 -0.59444 -0.0478986 -0.0132772 -0.444142 0.0284025 0.00643972 -0.465023 -0.0138674 0.0125928 -0.444206 -0.0279839 -0.0183989 -0.472715 0.036974 -0.0354784 -0.458421 0.0740246 0.00715874 -0.508881 -0.0139245 0.0390824 -0.512637 -0.0736677 0.0227311 -0.485846 -0.0453243 0.0152582 -0.531922 -0.0280986 -0.000326387 -0.486513 0.00015929 -0.0195625 -0.499822 0.0369387 0.0457881 -0.483962 -0.0910995 -0.015874 -0.531861 0.0282879 -0.0397917 -0.512636 0.0739538 -0.0464433 -0.484006 0.0913708 0.0348811 -0.458427 -0.0735969 -0.013515 -0.25437 0.0368344 0.00669326 -0.27564 -0.0180555 0.0130845 -0.254423 -0.0363859 -0.0185501 -0.28353 0.0479673 -0.0360813 -0.269242 0.0960764 0.00728533 -0.319904 -0.0181291 0.0391802 -0.323959 -0.0957078 0.0230688 -0.296861 -0.0589053 0.0152781 -0.342951 -0.0365334 -0.000202221 -0.29741 0.000159849 -0.0195082 -0.310887 0.0479219 0.0463393 -0.295311 -0.118343 -0.0156522 -0.342901 0.0366869 -0.039631 -0.323959 0.0959853 -0.0467458 -0.295347 0.118602 0.0357224 -0.269247 -0.0956166 -0.0137423 -0.0208905 0.0434661 0.00697411 -0.0425445 -0.0213529 0.0136226 -0.0209295 -0.0429926 -0.0186607 -0.0506406 0.0566226 -0.0366625 -0.0364054 0.113417 0.00741661 -0.087142 -0.0214394 0.0391775 -0.0915335 -0.113042 0.023396 -0.0641622 -0.0695979 0.0152601 -0.110124 -0.0431661 -5.01956e-05 -0.0645732 0.000160308 -0.0193769 -0.078204 0.0565691 0.0468418 -0.0630067 -0.139766 -0.0153379 -0.110087 0.0432926 -0.0393124 -0.0915329 0.113309 -0.0469438 -0.0630335 0.14002 0.036596 -0.0364093 -0.112935 -0.0139331 0.245018 0.0481185 0.00726606 0.22301 -0.0236713 0.0141659 0.244993 -0.0476253 -0.0187231 0.214717 0.0627084 -0.0371741 0.228872 0.125576 0.00755443 0.178152 -0.023767 0.0391197 0.173424 -0.125203 0.0237054 0.201025 -0.077116 0.0152304 0.155279 -0.0478171 0.000122589 0.200757 0.000160664 -0.0191898 0.186993 0.0626493 0.0472879 0.201774 -0.154788 -0.0149707 0.155303 0.0479268 -0.0388968 0.173425 0.125458 -0.0470437 0.201757 0.155045 0.0374411 0.22887 -0.125084 -0.0140568 0.531709 0.0508639 0.0075509 0.509406 -0.0250472 0.0146681 0.531696 -0.0503559 -0.0187268 0.500948 0.0663203 -0.03756 0.515018 0.132743 0.00770214 0.464363 -0.0