<VTKFile type="UnstructuredGrid" version="1.0" byte_order="LittleEndian" header_type="UInt64">
  <UnstructuredGrid>
    <Piece NumberOfPoints="791" NumberOfCells="973">
      <PointData>
        <DataArray type="Float32" Name="displacement" NumberOfComponents="3" format="ascii" RangeMin="0" RangeMax="1.1296789758">
          -0.00025645201094 0.86001199484 0.011905499734 0.00076966400957 0.8792539835 -0.0057727899402
          -0.0016635899665 0.88508599997 0.013880600221 5.6720400607e-05 0.85230499506 0.015589400195
          0.00036101500154 0.8600140214 0.011907599866 0.0017743000062 0.88506001234 0.013891500421
          -0.00066349597182 0.87928301096 -0.0058024898171 0.00036975799594 0.85967999697 -0.011878499761
          0.0022111500148 0.87437999249 -0.02940800041 0.00087788602104 0.86136198044 -0.031094700098
          5.2051600505e-05 0.85195302963 -0.015769399703 -0.0021159900352 0.87440699339 -0.029376100749
          -0.00025934301084 0.85969501734 -0.011895000003 -0.00077325699385 0.86136597395 -0.031084900722
          -0.0021927501075 0.87392699718 0.02964489907 -0.00098202598747 0.86128300428 0.031049299985
          0.0022966200486 0.87390601635 0.029663899913 0.0010918700136 0.8612729907 0.03104409948
          0.0022059399635 0.89257097244 -0.015211700462 5.4397001804e-05 0.87478500605 -0.035836599767
          -0.0020958699752 0.89258801937 -0.015182299539 0.0037101099733 0.89148497581 -0.030296299607
          -0.0036077399272 0.89154100418 -0.03025319986 0.0037485701032 0.89167302847 0.030012300238
          5.4985201132e-05 0.87441200018 0.03568200022 -0.0036454899237 0.89175498486 0.029969800264
          5.5084601627e-05 0.84880197048 0.00017042299442 0.011833700351 0.80856502056 -0.022462500259
          -0.0059200897813 0.79104697704 0.011430299841 -0.012166899629 0.80860501528 0.022811800241
          0.011490699835 0.91698598862 -0.014962799847 -0.0056815501302 0.89924800396 0.0077791102231
          -0.011756399646 0.91708499193 0.015295799822 0.014667700045 0.78410297632 -0.0293389
          0.014086799696 0.89239197969 -0.019674099982 0.030294500291 0.79379600286 -0.059116899967
          0.029068699107 0.9023039937 -0.039154201746 -0.0053646299057 0.75749397278 0.011457299814
          -0.027266399935 0.75241398811 0.059475198388 -0.017928300425 0.77341300249 0.036641001701
          -0.0050010099076 0.86670798063 0.0074180499651 -0.025336500257 0.86137598753 0.038071300834
          -0.017005700618 0.88187199831 0.024420699105 -0.010093900375 0.74159002304 0.022873200476
          -0.00915731024 0.8514829874 0.014287300408 -0.00015343099949 0.77394098043 0.00016142700042
          -0.00012956200226 0.88243997097 0.00015602000349 0.013773200102 0.76337397099 -0.029392799363
          0.012983599678 0.87221002579 -0.01913429983 -0.035696398467 0.77188199759 0.073413297534
          -0.033869698644 0.88029897213 0.048215199262 0.009809399955 0.74153798819 -0.022536000237
          0.0089926598594 0.85143399239 -0.014057699591 0.026913899928 0.75242501497 -0.059201199561
          0.025006199256 0.861322999 -0.03775370121 0.035387501121 0.77191901207 -0.073047399521
          0.033587999642 0.88034200668 -0.047963101417 -0.030558999628 0.79380398989 0.059392701834
          -0.029258700088 0.90227198601 0.039621300995 0.012038899586 0.65775299072 -0.029246300459
          -0.0060344398953 0.63960802555 0.014809199609 -0.012334199622 0.65780001879 0.029548700899
          0.015061399899 0.63249802589 -0.038214098662 0.030904399231 0.64280700684 -0.076846599579
          -0.0055585498922 0.60473501682 0.014827599749 -0.028377300128 0.59968400002 0.077163398266
          -0.018446799368 0.62144398689 0.047594498843 -0.010575300083 0.5880190134 0.029603200033
          -0.00013754700194 0.6218829751 0.00016201799735 0.014291300438 0.6109470129 -0.038203898817
          -0.036752298474 0.62021398544 0.095371901989 0.010329299606 0.58798098564 -0.029226100072
          0.028065700084 0.59968197346 -0.076860800385 0.036474101245 0.62024301291 -0.094991199672
          -0.03114500083 0.64281100035 0.077106900513 0.012174200267 0.47143000364 -0.034338101745
          -0.006086349953 0.45298600197 0.017318099737 -0.012356399558 0.47145798802 0.034620299935
          0.015475300141 0.44581601024 -0.044802300632 0.031471800059 0.4566090107 -0.090153798461
          -0.0057759401388 0.41699200869 0.017353199422 -0.029794799164 0.4121260047 0.0904071033
          -0.01900799945 0.4345099926 0.055732201785 -0.011200600304 0.39948099852 0.03468329832
          -8.4271996457e-05 0.43479800224 0.00016425299691 0.014973900281 0.42357000709 -0.044780798256
          -0.037935700268 0.43368801475 0.11176600307 0.011048899963 0.39945501089 -0.03426130116
          0.029601700604 0.41212901473 -0.090095803142 0.037765499204 0.4337080121 -0.11136200279
          -0.031615901738 0.45661199093 0.090375900269 0.012260699645 0.26164999604 -0.037156701088
          -0.0060888798907 0.24293600023 0.018712600693 -0.012276099995 0.2616609931 0.037422601134
          0.015861300752 0.23574000597 -0.048463799059 0.031894899905 0.24707099795 -0.097523197532
          -0.0059670098126 0.20586499572 0.01875779964 -0.03118430078 0.20124700665 0.097787201405
          -0.019495600834 0.22421400249 0.060257401317 -0.011823900044 0.18751500547 0.037516299635
          -5.0872499742e-06 0.22432599962 0.00016583400429 0.015664700419 0.21283000708 -0.048434700817
          -0.038984999061 0.22389400005 0.12088300288 0.011821500026 0.18750600517 -0.037065401673
          0.031164599583 0.20124800503 -0.0974688977 0.038973599672 0.22390200198 -0.12046399713
          -0.031896300614 0.24707199633 0.097728297114 0.012307800353 0.042617201805 -0.037395998836
          -0.0060554700904 0.023699700832 0.018826000392 -0.012125999667 0.04260969907 0.037656698376
          0.016218699515 0.016508100554 -0.04876369983 0.03222899884 0.028367400169 -0.098146297038
          -0.0061425301246 -0.014390800148 0.018877100199 -0.032566498965 -0.018715199083 0.098407901824
          -0.019936000928 0.0047885798849 0.060630500317 -0.012448100373 -0.033570300788 0.037758901715
          8.894270286e-05 0.0047076200135 0.00016747400514 0.016360100359 -0.0070330700837 -0.048732701689
          -0.039961401373 0.0050158798695 0.12165100127 0.012622600421 -0.03356250003 -0.037293899804
          0.032751400024 -0.018713900819 -0.09808280319 0.040139000863 0.0050111198798 -0.12122499943
          -0.032058101147 0.028366899118 0.098344698548 0.012338300236 -0.17009599507 -0.034935999662
          -0.0060086101294 -0.18918700516 0.017601899803 -0.011951399967 -0.17012199759 0.035200100392
          0.016554199159 -0.19636200368 -0.045551899821 0.032512500882 -0.18399100006 -0.091706700623
          -0.0063044801354 -0.2282319963 0.017651800066 -0.033891901374 -0.23225599527 0.091974101961
          -0.020340399817 -0.20825399458 0.056663900614 -0.013048700057 -0.24821199477 0.035300798714
          0.00018683400413 -0.20852899551 0.00016896000307 0.017033400014 -0.22049300373 -0.045520801097
          -0.040867500007 -0.20747800171 0.11369500309 0.01340799965 -0.24818700552 -0.03483530134
          0.034288998693 -0.2322549969 -0.091644398868 0.04124160111 -0.20749600232 -0.11326999962
          -0.032161999494 -0.18399399519 0.091911897063 0.012370100245 -0.3608970046 -0.029878599569
          -0.0059658098035 -0.38015300035 0.015089400113 -0.011792199686 -0.36094099283 0.030154500157
          0.016868300736 -0.38731399179 -0.038959499449 0.032782699913 -0.37446901202 -0.078472398221
          -0.0064545599744 -0.42008900642 0.015133500099 -0.03512249887 -0.42383599281 0.078750997782
          -0.020717499778 -0.39936798811 0.048520799726 -0.013605100103 -0.44081199169 0.030243100598
          0.00027800298994 -0.39982199669 0.0001703529997 0.017659600824 -0.41199699044 -0.038932401687
          -0.041712798178 -0.39808601141 0.097344398499 0.014136799611 -0.4407710135 -0.02979009971
          0.035716999322 -0.42383399606 -0.078417703509 0.042270001024 -0.39811599255 -0.096926800907
          -0.03226479888 -0.37447300553 0.078696198761 0.012420400046 -0.51540100574 -0.022528899834
          -0.0059440000914 -0.53483200073 0.011439999565 -0.011685299687 -0.51545900106 0.022823799402
          0.017163300887 -0.54199701548 -0.029383299872 0.033073801547 -0.52872997522 -0.059241201729
          -0.0065946602263 -0.57559299469 0.011473399587 -0.03622270003 -0.57911801338 0.059535298496
          -0.02107629925 -0.55421102047 0.036690801382 -0.01409890037 -0.5969799757 0.022890999913
          0.00035300498712 -0.55481499434 0.0001716340048 0.018216500059 -0.56718999147 -0.02936270088
          -0.042505100369 -0.55250501633 0.07358430326 0.014772100374 -0.59692502022 -0.022461799905
          0.036979999393 -0.57911598682 -0.059199698269 0.043212901801 -0.55254399776 -0.073180302978
          -0.032418299466 -0.52873599529 0.059493798763 0.012502600439 -0.62153601646 -0.01336569991
          -0.0059567699209 -0.6411730051 0.0068907798268 -0.011660300195 -0.62160402536 0.013685300015
          0.017440499738 -0.64837002754 -0.017445899546 0.033412799239 -0.63474601507 -0.035265598446
          -0.0067263599485 -0.68269199133 0.0069098398089 -0.037164200097 -0.68607002497 0.035578601062
          -0.021423799917 -0.66074800491 0.021943500265 -0.014515100047 -0.70464199781 0.013723700307
          0.00040398401325 -0.66146302223 0.00017280700558 0.018686100841 -0.67403101921 -0.017434099689
          -0.043251000345 -0.65872901678 0.043962400407 0.015283999965 -0.70457601547 -0.013327299617
          0.038032699376 -0.68606901169 -0.035241801292 0.044061198831 -0.65877598524 -0.04357650131
          -0.032664500177 -0.63475197554 0.035554800183 0.012625499628 -0.67044699192 -0.0029988999013
          -0.0060138502158 -0.69033098221 0.0017442000099 -0.011737899855 -0.67052197456 0.0033472198993
          0.017700299621 -0.69759500027 -0.003941019997 0.033817701042 -0.68368798494 -0.008141759783
          -0.0068511301652 -0.73253899813 0.0017465000274 -0.037927400321 -0.73586499691 0.0084755597636
          -0.021765200421 -0.71014600992 0.005259280093 -0.014843599871 -0.7549380064 0.0033519600984
          0.0004251349892 -0.71092402935 0.00017387099797 0.019055400044 -0.72368198633 -0.0039396099746
          -0.043954901397 -0.70794999599 0.010450700298 0.01565130055 -0.75486701727 -0.0029941799585
          0.038843501359 -0.73586398363 -0.0081388298422 0.04480760172 -0.70800101757 -0.010085799731
          -0.033032301813 -0.68369400501 0.0084726400673 0.01279219985 -0.65711098909 0.0078831100836
          -0.0061204601079 -0.67728698254 -0.0036584800109 -0.011928400025 -0.65718698502 -0.0075041297823
          0.017941700295 -0.68465697765 0.010235900059 0.034295499325 -0.67054599524 0.020329300314
          -0.0069703501649 -0.72011500597 -0.0036741499789 -0.038503699005 -0.72348999977 -0.019974399358
          -0.022103300318 -0.69739300013 -0.012255400419 -0.015080500394 -0.74284398556 -0.0075354701839
          0.00041298801079 -0.69818198681 0.00017482500698 0.019317200407 -0.71112799644 0.010226200335
          -0.044619098306 -0.69516402483 -0.024725500494 0.01586320065 -0.74277198315 0.0078517599031
          0.039396498352 -0.72348797321 0.020309900865 0.045447599143 -0.69521600008 0.025068599731
          -0.033535398543 -0.67055302858 -0.019954999909 0.012999500148 -0.58062398434 0.018573800102
          -0.0062768999487 -0.60113501549 -0.0089669702575 -0.012230399996 -0.58069598675 -0.018164200708
          0.018162500113 -0.60865002871 0.024165699258 0.034841299057 -0.59441202879 0.048298701644
          -0.0070853801444 -0.64451301098 -0.0090005099773 -0.038896299899 -0.64803498983 -0.04792419821
          -0.022438799962 -0.62158000469 -0.029464799911 -0.015228499658 -0.66745197773 -0.018231399357
          0.00036653099232 -0.62233000994 0.00017566699535 0.01947100088 -0.63546001911 0.0241448991
          -0.045243501663 -0.61945998669 -0.059282001108 0.015920300037 -0.66738402843 0.01850659959
          0.039692901075 -0.64803397655 0.048257198185 0.045979000628 -0.61950999498 0.059604600072
          -0.034170798957 -0.59441798925 -0.047882601619 0.013237600215 -0.44412600994 0.028411500156
          -0.0064786900766 -0.46500599384 -0.013853300363 -0.012631399557 -0.44418999553 -0.027972899377
          0.018358999863 -0.47269800305 0.036987598985 0.035437900573 -0.45840498805 0.074034802616
          -0.0071976799518 -0.50886297226 -0.013903399929 -0.039120301604 -0.51261901855 -0.073643699288
          -0.022769600153 -0.48582801223 -0.045305598527 -0.015296700411 -0.53190302849 -0.028073400259
          0.00028714101063 -0.48649600148 0.00017639900034 0.019522599876 -0.49980399013 0.036956600845
          -0.045825898647 -0.48394399881 -0.091079197824 0.01583440043 -0.53184199333 0.028310999274
          0.039751000702 -0.512616992 0.073972597718 0.046402301639 -0.48398798704 0.091384597123
          -0.034919101745 -0.45841100812 -0.073581501842 0.013490700163 -0.25436100364 0.036841098219
          -0.0067168897949 -0.27562901378 -0.018042299896 -0.013107799925 -0.25441300869 -0.03637649864
          0.018525499851 -0.28351899981 0.047979999334 0.036056101322 -0.26923200488 0.096084602177
          -0.0073089301586 -0.31989198923 -0.018106700853 -0.0392027013 -0.3239479959 -0.095681600273
          -0.023091899231 -0.29684999585 -0.058886099607 -0.015301399864 -0.34293800592 -0.036505799741
          0.00017831199511 -0.29739901423 0.00017701799516 0.019483700395 -0.31087601185 0.047940198332
          -0.0463616997 -0.29530000687 -0.11832199991 0.015627900138 -0.34288799763 0.036711901426
          0.03960569948 -0.32394701242 0.096004702151 0.046720098704 -0.29533600807 0.11861500144
          -0.035745099187 -0.26923701167 -0.095601700246 0.013736899942 -0.020889399573 0.043471001089
          -0.006978829857 -0.042542599142 -0.021340299398 -0.013627000153 -0.020928300917 -0.04298460111
          0.018655100837 -0.050638400018 0.056634500623 0.036656200886 -0.036403801292 0.1134229973
          -0.0074213198386 -0.087138496339 -0.021416099742 -0.039181098342 -0.091529898345 -0.11301399767
          -0.023400200531 -0.064159497619 -0.069578200579 -0.015264400281 -0.11011999846 -0.043136499822
          4.5197099098e-05 -0.064570501447 0.00017752600252 0.019371200353 -0.078200802207 0.056587699801
          -0.04684529826 -0.063004001975 -0.13974399865 0.015332399867 -0.11008299887 0.043319098651
          0.039305999875 -0.091529101133 0.11332900077 0.046937000006 -0.063030801713 0.14003199339
          -0.036599699408 -0.036407500505 -0.11292000115 0.013949300162 0.24501000345 0.048122100532
          -0.0072492300533 0.22300200164 -0.023659199476 -0.014148799703 0.2449849993 -0.047618299723
          0.018738999963 0.21470999718 0.062719799578 0.037189301103 0.22886499763 0.12558199465
          -0.0075375898741 0.17814700305 -0.023742899299 -0.039101801813 0.17341800034 -0.12517400086
          -0.023687999696 0.20101800561 -0.077096097171 -0.015213299543 0.15527400374 -0.047786198556
          -0.00010602400289 0.20074999332 0.0001779209997 0.019205600023 0.18698699772 0.062668003142
          -0.047269698232 0.20176799595 -0.15476499498 0.01498680003 0.15529799461 0.047954298556
          0.038911998272 0.17341899872 0.12547799945 0.04705850035 0.20174999535 0.15505699813
          -0.037423301488 0.22886200249 -0.12507000566 0.014096099883 0.53169000149 0.050866700709
          -0.0075107999146 0.50938898325 -0.025035399944 -0.01462769974 0.53167802095 -0.05034950003
          0.018766000867 0.50093102455 0.066331297159 0.037598498166 0.51499998569 0.13274799287
          -0.0076620401815 0.46434798837 -0.02512379922 -0.039019599557 0.45932498574 -0.13234899938
          -0.023948600516 0.48710098863 -0.081557802856 -0.015180399641 0.44159498811 -0.050526801497
          -0.00026891799644 0.48695999384 0.00017820400535 0.019010800868 0.47309398651 0.066276699305
          -0.047628100961 0.48748698831 -0.16361999512 0.014635300264 0.44160699844 0.050689499825
          0.038492899388 0.45932498574 0.13263900578 0.047090798616 0.487477988 0.16392299533
          -0.038147401065 0.51499801874 -0.13223899901 0.014144299552 0.82867699862 0.05205360055
          -0.0077476198785 0.80617499352 -0.025645399466 -0.015017899685 0.8286730051 -0.051524400711
          0.018725600094 0.79760098457 0.06793230027 0.037824600935 0.81160002947 0.13583099842
          -0.0077988901176 0.7610219717 -0.025735899806 -0.038991298527 0.75578701496 -0.13545100391
          -0.024175999686 0.7836779952 -0.083535499871 -0.015199899673 0.73836702108 -0.051705699414
          -0.00043766800081 0.78363001347 0.00017837200721 0.018808599561 0.76969498396 0.067876301706
          -0.047914400697 0.78380101919 -0.16742900014 0.014322499745 0.7383710146 0.051872301847
          0.038119100034 0.75578701496 0.13571900129 0.04703919962 0.78379797935 0.1677570045
          -0.03870299831 0.81159901619 -0.13533900678 0.014052200131 1.1283400059 0.052331201732
          -0.0079417899251 1.1057699919 -0.02579870075 -0.015267900191 1.1283400059 -0.051795400679
          0.018599800766 1.0971499681 0.068334802985 0.037795200944 1.1111199856 0.1365430057
          -0.0079575097188 1.0605800152 -0.025889800861 -0.039086401463 1.055259943 -0.13617700338
          -0.024366000667 1.0831899643 -0.084032699466 -0.015314700082 1.0379600525 -0.051977600902
          -0.00060803402448 1.0831799507 0.00017843200476 0.018625300378 1.0692199469 0.068278498948
          -0.048123899847 1.083220005 -0.16830700636 0.014098200016 1.0379600525 0.052148900926
          0.037870999426 1.055259943 0.1364299953 0.046907901764 1.083220005 0.16865299642
          -0.039011999965 1.1111199856 -0.13606399298 0.0071072299033 0.95537400246 -0.0071326098405
          -0.0035192701034 0.9384059906 0.0034452599939 -0.0070981001481 0.95554202795 0.007526120171
          0.0090857697651 0.93219399452 -0.0077978898771 0.018779700622 0.94178301096 -0.017318099737
          -0.0033040898852 0.91043001413 0.0024951999076 -0.016964100301 0.9058920145 0.012547199614
          -0.011060800403 0.92316401005 0.0089147100225 -0.0062223398127 0.89753800631 0.004388500005
          -2.2059099138e-05 0.92363399267 0.00013767300698 0.0086664296687 0.91504198313 -0.0064408401959
          -0.022248499095 0.92216402292 0.018036300316 0.0061314702034 0.89755600691 -0.0043080700561
          0.016856700182 0.90582597256 -0.012335900217 0.022082699463 0.92212498188 -0.01767189987
          -0.018787300214 0.94157797098 0.01746599935 -0.00053654599469 0.90279197693 -0.0040612998419
          -0.0031181599479 0.90532100201 -0.020996300504 -0.0013482300565 0.9120079875 -0.0073692300357
          1.2892999621e-05 0.89271897078 -2.6832700314e-05 0.0014604800381 0.89906901121 0.011067000218
          0.0012934199767 0.91208702326 0.0074378200807 0.0032096300274 0.90543198586 0.02115130052
          -0.011408300139 0.91699898243 -0.014983699657 0.0057652499527 0.89925801754 0.0077618798241
          0.011839900166 0.91709697247 0.015275700018 -0.011762799695 0.80857902765 -0.02248490043
          0.0059916200116 0.79106098413 0.011411099695 0.012238600291 0.80861902237 0.022789200768
          -0.014003800228 0.89240497351 -0.019692100585 -0.014596999623 0.78411501646 -0.029356300831
          -0.028987899423 0.90231698751 -0.039172600955 -0.030223900452 0.7938079834 -0.059137098491
          0.0050845998339 0.86671900749 0.0074049099348 0.025420300663 0.86138701439 0.038058899343
          0.01708940044 0.88188201189 0.02440300025 0.0054361498915 0.75750601292 0.011445200071
          0.027338700369 0.75242501497 0.059463899583 0.018000399694 0.77342498302 0.036625798792
          0.0092407800257 0.85149300098 0.01427649986 0.010165600106 0.7416009903 0.022864699364
          0.00021363400447 0.88245099783 0.00014008500148 0.00022465799702 0.77395302057 0.00014605499746
          -0.012900000438 0.87222099304 -0.019147599116 -0.01370249968 0.76338601112 -0.029406100512
          0.033952701837 0.88030797243 0.048198301345 0.035769399256 0.77189397812 0.073397703469
          -0.0089097004384 0.85144400597 -0.01406759955 -0.0097384201363 0.74154901505 -0.022544499487
          -0.024924499914 0.86133301258 -0.037763901055 -0.026843300089 0.75243699551 -0.059212800115
          -0.03350789845 0.88035702705 -0.047977399081 -0.035317000002 0.77192997932 -0.073063403368
          0.02934139967 0.90228301287 0.039600398391 0.030631899834 0.7938169837 0.059373099357
          -0.011982499622 0.65776497126 -0.029270900413 0.0060916100629 0.63961899281 0.014789500274
          0.012391599827 0.65781098604 0.029525099322 -0.015004999936 0.63250899315 -0.038233101368
          -0.030848700553 0.64281797409 -0.076868601143 0.0056157098152 0.6047449708 0.014816200361
          0.028435399756 0.5996940136 0.077154099941 0.018504500389 0.62145501375 0.047579400241
          0.010632500052 0.58802801371 0.029596300796 0.00019456799782 0.62189400196 0.00014623900643
          -0.01423470024 0.61095798016 -0.038217701018 0.036810599267 0.6202250123 0.09535779804
          -0.01027270034 0.58798998594 -0.02923399955 -0.028009699658 0.59969198704 -0.076872602105
          -0.036418400705 0.62025398016 -0.095008403063 0.031202999875 0.64282202721 0.077087298036
          -0.012134499848 0.47143799067 -0.034364201128 0.0061267297715 0.45299300551 0.017297899351
          0.012396999635 0.47146600485 0.034595798701 -0.015435700305 0.44582301378 -0.04482210055
          -0.031432799995 0.45661699772 -0.090177603066 0.0058163302019 0.41699799895 0.017342299223
          0.029836000875 0.41213199496 0.090398997068 0.019048899412 0.43451601267 0.055717501789
          0.01124120038 0.39948698878 0.034677501768 0.00012446299661 0.43480500579 0.00014833299792
          -0.014934199862 0.42357599735 -0.044794801623 0.037977300584 0.43369498849 0.11175200343
          -0.011009099893 0.39946100116 -0.034268599004 -0.029562499374 0.412135005 -0.090107999742
          -0.037726599723 0.43371498585 -0.11138000339 0.031657300889 0.45662000775 0.090356200933
          -0.012239299715 0.26165300608 -0.037183601409 0.006110960152 0.24293799698 0.018692100421
          0.012298399583 0.26166400313 0.03739760071 -0.015839999542 0.23574200273 -0.048484198749
          -0.031874198467 0.24707399309 -0.097548000515 0.0059890998527 0.2058659941 0.018747199327
          0.03120720014 0.20124800503 0.097779802978 0.019518200308 0.22421500087 0.060242898762
          0.01184609998 0.18751600385 0.03751109913 2.6966499718e-05 0.22432799637 0.00014974799706
          -0.015643300489 0.21283100545 -0.048448998481 0.039008300751 0.22389499843 0.12087000161
          -0.011800100096 0.18750600517 -0.037072598934 -0.031143799424 0.20124900341 -0.097481496632
          -0.0389530994 0.22390300035 -0.12048400193 0.031919300556 0.24707500637 0.097708597779
          -0.012305100448 0.042613901198 -0.037423100322 0.0060587897897 0.023695800453 0.018805399537
          0.012129499577 0.042606398463 0.037631701678 -0.016216099262 0.01650390029 -0.048784300685
          -0.032227098942 0.028363600373 -0.098171398044 0.0061458698474 -0.014396100305 0.018866300583
          0.032570801675 -0.018720600754 0.098400503397 0.019939800724 0.0047839898616 0.060616001487
          0.012451699935 -0.033576298505 0.037753600627 -8.5838102677e-05 0.0047030202113 0.00015123099729
          -0.016357600689 -0.0070381099358 -0.048747301102 0.039965901524 0.0050112898462 0.12163800001
          -0.012619899586 -0.033568501472 -0.037301398814 -0.032749399543 -0.018719399348 -0.098095797002
          -0.040137298405 0.0050064800307 -0.12124499679 0.032062400132 0.028363099322 0.098325200379
          -0.012353600003 -0.17010599375 -0.034962598234 0.0059939101338 -0.18919700384 0.017581500113
          0.011936900206 -0.17013199627 0.035175599158 -0.016569700092 -0.19637200236 -0.045572500676
          -0.032528601587 -0.18400099874 -0.091731503606 0.0062898099422 -0.22824400663 0.017640499398
          0.033878199756 -0.23226700723 0.091966100037 0.020326200873 -0.20826500654 0.056649200618
          0.013034299947 -0.24822500348 0.035294599831 -0.00020176199905 -0.20853999257 0.00015257300402
          -0.017048999667 -0.22050499916 -0.045535799116 0.040853898972 -0.20748899877 0.11368200183
          -0.013423300348 -0.24819900095 -0.034843601286 -0.034305099398 -0.23226599395 -0.09165789932
          -0.04125810042 -0.20750699937 -0.11328999698 0.032148201019 -0.18400399387 0.091892696917
          -0.012401400134 -0.36091300845 -0.029903799295 0.0059350500815 -0.3801690042 0.015069499612
          0.011761800386 -0.3609560132 0.030131099746 -0.016899900511 -0.38732999563 -0.038979601115
          -0.032814901322 -0.37448498607 -0.078496202826 0.0064238300547 -0.42010599375 0.015121299773
          0.035092700273 -0.42385300994 0.0787416026 0.020687200129 -0.39938500524 0.048505701125
          0.013574800454 -0.44082999229 0.030235199258 -0.00030900898855 -0.39983901381 0.00015382999845
          -0.017691200599 -0.41201400757 -0.038947701454 0.041683200747 -0.39810299873 0.097330801189
          -0.014168100432 -0.4407890141 -0.029799800366 -0.035749301314 -0.42385199666 -0.078431800008
          -0.042302601039 -0.39813199639 -0.096946299076 0.0322348997 -0.37448900938 0.078677296638
          -0.012464599684 -0.5154209733 -0.022552099079 0.005900260061 -0.53485298157 0.011420800351
          0.011641900055 -0.51547902822 0.022802000865 -0.017207900062 -0.54201799631 -0.029402699322
          -0.033119000494 -0.52875101566 -0.059263300151 0.0065509597771 -0.5756149888 0.011459999718
          0.036180000752 -0.5791400075 0.059524100274 0.021033000201 -0.55423301458 0.036675300449
          0.01405560039 -0.59700298309 0.022880900651 -0.00039700401248 -0.55483698845 0.00015498700668
          -0.018261199817 -0.56721198559 -0.029378399253 0.042462501675 -0.55252599716 0.073569901288
          -0.014816500247 -0.59694802761 -0.022473299876 -0.037025298923 -0.57913899422 -0.059214498848
          -0.043258599937 -0.5525649786 -0.073199100792 0.032375499606 -0.52875602245 0.059475399554
          -0.012555800378 -0.62155902386 -0.013386299834 0.0059040701017 -0.64119702578 0.006872470025
          0.011607900262 -0.62162798643 0.013665400445 -0.017494099215 -0.64839398861 -0.017464300618
          -0.033466998488 -0.63476902246 -0.03528559953 0.0066737099551 -0.68271702528 0.0068950299174
          0.037112500519 -0.68609601259 0.035565000027 0.021371500567 -0.66077297926 0.021927399561
          0.014462799765 -0.70466798544 0.01371090021 -0.00045694201253 -0.6614869833 0.00015604699729
          -0.0187398009 -0.67405599356 -0.017450299114 0.043199401349 -0.65875399113 0.043946899474
          -0.015337299556 -0.7046020031 -0.013340899721 -0.038086999208 -0.68609499931 -0.035257499665
          -0.044115800411 -0.65880101919 -0.043594498187 0.032612700015 -0.63477599621 0.035537000746
          -0.012683000416 -0.67047101259 -0.0030167100485 0.0059569398873 -0.69035601616 0.001726920018
          0.011681299657 -0.67054599524 0.0033295298927 -0.017758099362 -0.69761997461 -0.0039582299069
          -0.033876098692 -0.68371200562 -0.0081593198702 0.0067942598835 -0.73256599903 0.0017301000189
          0.037871498615 -0.73589199781 0.0084594003856 0.021708700806 -0.71017199755 0.0052425097674
          0.014787199907 -0.75496602058 0.003336050082 -0.00048232200788 -0.71095001698 0.00015700700169
          -0.019113199785 -0.72370898724 -0.0039562699385 0.043899100274 -0.70797598362 0.010434100404
          -0.015708800405 -0.75489497185 -0.0030102198943 -0.038902100176 -0.73589098454 -0.0081552900374
          -0.04486649856 -0.7080270052 -0.010102800094 0.032976299524 -0.68371999264 0.0084553798661
          -0.012848800048 -0.65713500977 0.0078683197498 0.0060644401237 -0.67731100321 -0.0036746601108
          0.011872700416 -0.65721100569 -0.0075195301324 -0.017998600379 -0.6846820116 0.010219899938
          -0.034353099763 -0.67057001591 0.020314300433 0.0069143800065 -0.7201409936 -0.0036921799183
          0.038448698819 -0.7235159874 -0.019993299618 0.022047799081 -0.69741797447 -0.012272800319
          0.015025000088 -0.74287098646 -0.0075546000153 -0.0004692839866 -0.69820702076 0.00015786799486
          -0.019374199212 -0.71115398407 0.010209100321 0.044564198703 -0.69519001245 -0.024743400514
          -0.015919800848 -0.74279898405 0.007833249867 -0.039454199374 -0.72351497412 0.020292600617
          -0.04550569877 -0.69524097443 0.025052700192 0.033480200917 -0.67057698965 -0.019971599802
          -0.013050000183 -0.58064502478 0.018562000245 0.0062269498594 -0.6011570096 -0.0089820800349
          0.012180799618 -0.58071702719 -0.018177300692 -0.018213400617 -0.60867202282 0.024150900543
          -0.034892801195 -0.59443300962 0.048286300153 0.007035470102 -0.64453697205 -0.0090201599523
          0.038847401738 -0.64805799723 -0.047945801169 0.022389300168 -0.62160199881 -0.029482899234
          0.015178999864 -0.6674759984 -0.018253700808 -0.00041675800458 -0.62235301733 0.00015862900182
          -0.019521899521 -0.6354830265 0.024127399549 0.04519470036 -0.61948299408 -0.059301201254
          -0.015970900655 -0.6674079895 0.018485700712 -0.039744500071 -0.64805698395 0.048239100724
          -0.04603099823 -0.6195319891 0.059589799494 0.034121800214 -0.59443998337 -0.047898601741
          -0.013277200051 -0.44414201379 0.028402499855 0.0064397198148 -0.46502301097 -0.013867399655
          0.012592799962 -0.44420599937 -0.02798390016 -0.018398899585 -0.47271499038 0.036974001676
          -0.035478398204 -0.4584209919 0.074024602771 0.007158739958 -0.50888097286 -0.013924499974