<VTKFile type="UnstructuredGrid" version="1.0" byte_order="LittleEndian" header_type="UInt64">
  <UnstructuredGrid>
    <Piece NumberOfPoints="791" NumberOfCells="973">
      <PointData>
        <DataArray type="Float32" Name="displacement" NumberOfComponents="3" format="ascii" RangeMin="0" RangeMax="1.0887081516">
          7.3598398558e-06 0.089381597936 0.0046987198293 -3.7971698475e-05 0.097429201007 -0.0026927599683
          5.7941299019e-05 0.10059200227 0.007138649933 -4.3064701458e-06 0.088045097888 0.0057837800123
          -1.5824200091e-05 0.089381702244 0.0046998900361 -6.7893102823e-05 0.10059399903 0.0071395500563
          2.8414000553e-05 0.097428202629 -0.0026905199047 -1.9000799512e-05 0.089396901429 -0.0046992599964
          -2.6375200832e-05 0.095597997308 -0.01578320004 -4.3070398533e-05 0.090930201113 -0.012318300083
          -4.239790087e-06 0.088067397475 -0.0057667098008 1.6918600522e-05 0.095597498119 -0.0157821998
          1.0115300029e-05 0.089396700263 -0.0046973098069 3.4169101127e-05 0.090930499136 -0.012317899615
          1.9947599867e-05 0.095618203282 0.015775300562 4.2635700083e-05 0.090934798121 0.012322800234
          -2.9127300877e-05 0.095619499683 0.015776500106 -5.1313498261e-05 0.090935200453 0.012323499657
          -7.1534101153e-05 0.10580799729 -0.0089400196448 -4.6926002142e-06 0.09493470192 -0.015421999618
          6.0882401158e-05 0.10580799729 -0.0089395502582 -6.8952598667e-05 0.10588999838 -0.017920700833
          5.8406498283e-05 0.10588999838 -0.017920199782 -7.9752499005e-05 0.10588199645 0.017938399687
          -4.4602797971e-06 0.094963498414 0.015448500402 6.9855101174e-05 0.1058799997 0.017937999219
          -4.2506399041e-06 0.087064102292 -8.9486302386e-06 -0.00037212099414 0.20211400092 0.0069930199534
          0.00019460800104 0.20266799629 -0.0035074299667 0.0003979630128 0.20211200416 -0.0070135500282
          -0.00038080199738 0.16270400584 0.0066702701151 0.0001884259982 0.16328400373 -0.003350479994
          0.00039217900485 0.16269999743 -0.0066875000484 -0.00045329998829 0.20288999379 0.0091546401381
          -0.00045907899039 0.16350999475 0.0087434500456 -0.00095445301849 0.20259599388 0.018325399607
          -0.00095225300174 0.1631949991 0.017477799207 0.00017084099818 0.20370900631 -0.003505080007
          0.00083572498988 0.20387899876 -0.018339600414 0.00056446500821 0.20322600007 -0.011331499554
          0.00015912100207 0.16433399916 -0.0033336800989 0.00079514802201 0.16452300549 -0.017434200272
          0.0005498030223 0.16385500133 -0.010812100023 0.00030916999094 0.20419099927 -0.0070083299652
          0.00028143599047 0.16481800377 -0.0066459500231 1.2214300114e-05 0.20320299268 -6.0260099417e-06
          5.7180000113e-06 0.16383099556 -5.7479401221e-06 -0.00041502798558 0.20353299379 0.0091596599668
          -0.00041171099292 0.16416400671 0.0087226303294 0.0011171200313 0.20329099894 -0.022666500881
          0.0010904399678 0.16392199695 -0.021602399647 -0.00028529000701 0.20419299603 0.0070032901131
          -0.00027445101296 0.16482000053 0.0066418801434 -0.00080936402082 0.20387899876 0.018333699554
          -0.00078068498988 0.16452600062 0.017425799742 -0.0010924800299 0.20328900218 0.022653300315
          -0.0010793999536 0.1639200002 0.021592600271 0.00097708497196 0.20259599388 -0.018340200186
          0.00096054398455 0.16319699585 -0.017499100417 -0.00036082201404 0.24331200123 0.0072939298116
          0.00020083600248 0.24386799335 -0.003659500042 0.00040119601181 0.24331000447 -0.0073139499873
          -0.00044313300168 0.24409000576 0.0095526603982 -0.00093644601293 0.2437890023 0.019114399329
          0.00017785800446 0.24491399527 -0.0036554199178 0.00084112002514 0.24508200586 -0.019127000123
          0.00056853698334 0.24442599714 -0.011822599918 0.00031674600905 0.24540300667 -0.0073066498153
          1.9657500161e-05 0.2444050014 -5.9508902268e-06 -0.00040591700235 0.2447360009 0.0095549700782
          0.0011170799844 0.24448500574 -0.023644400761 -0.00027866099845 0.24540400505 0.0073024798185
          -0.00080010597594 0.24508300424 0.019120700657 -0.0010778399883 0.24448400736 0.023631600663
          0.00097406102577 0.2437890023 -0.019130799919 -0.0003491959942 0.28617501259 0.0075686802156
          0.00020715799474 0.2867270112 -0.0037965800148 0.00040456900024 0.28617298603 -0.0075891399756
          -0.00043382000877 0.28694599867 0.0099113900214 -0.00092318002135 0.28664401174 0.019833600149
          0.00018679299683 0.28777199984 -0.003792519914 0.00085691001732 0.28793600202 -0.019844299182
          0.00057670299429 0.28728100657 -0.012266100384 0.00032907098648 0.2882629931 -0.0075806598179
          2.7188199965e-05 0.28726199269 -5.9718699958e-06 -0.00040087400703 0.28759199381 0.009913969785
          0.0011263899505 0.2873339951 -0.0245318003 -0.00027559901355 0.28826498985 0.0075766500086
          -0.00080095301382 0.28793600202 0.019838200882 -0.0010720200371 0.28733301163 0.024519000202
          0.00097595201805 0.28664401174 -0.019849799573 -0.00033775300835 0.33053401113 0.0078155100346
          0.00021398499666 0.33108401299 -0.0039202398621 0.00040857298882 0.33053299785 -0.0078361304477
          -0.00042450200999 0.33130100369 0.010234899819 -0.00090912199812 0.33099600673 0.020479999483
          0.00019559900102 0.33212900162 -0.003916000016 0.00087053101743 0.33228799701 -0.020491300151
          0.00058450002689 0.33163499832 -0.012665900402 0.00034062299528 0.33262300491 -0.0078277597204
          3.4965898521e-05 0.33161699772 -5.9658800637e-06 -0.00039475198719 0.33194699883 0.01023740042
          0.0011339699849 0.33168199658 -0.025331299752 -0.00027156001306 0.33262500167 0.0078239701688
          -0.00079919199925 0.33228901029 0.020485300571 -0.0010640500113 0.33168101311 0.025318499655
          0.00097764702514 0.33099600673 -0.020496500656 -0.00032610900234 0.37623798847 0.0080361496657
          0.00022091399296 0.3767850101 -0.0040306500159 0.00041276699631 0.376237005 -0.0080569600686
          -0.00041485900874 0.37700000405 0.010523799807 -0.0008951050113 0.37669301033 0.021057900041
          0.00020459099323 0.37782999873 -0.0040263500996 0.00088453997159 0.37798500061 -0.021069100127
          0.00059247697936 0.37733200192 -0.013023200445 0.00035239499994 0.37832701206 -0.0080483397469
          4.293460006e-05 0.37731701136 -5.9678800426e-06 -0.00038844998926 0.37764599919 0.010526499711
          0.0011420299998 0.37737500668 -0.026045599952 -0.00026728599914 0.37832900882 0.0080447699875
          -0.00079741800437 0.37798500061 0.021063199267 -0.0010561799863 0.3773739934 0.026032799855
          0.00097971502692 0.37669301033 -0.021074399352 -0.00031445699278 0.42313700914 0.0082313204184
          0.00022809399525 0.42368000746 -0.0041283601895 0.00041730800876 0.42313599586 -0.0082523003221
          -0.00040516798617 0.42389398813 0.010779500008 -0.0008811429725 0.42358499765 0.021569000557
          0.00021372799529 0.42472600937 -0.004123960156 0.00089844397735 0.42487698793 -0.021580299363
          0.00060065998696 0.42422500253 -0.013339200057 0.0003641830117 0.42522600293 -0.008243500255
          5.1078000979e-05 0.42421200871 -5.9674498516e-06 -0.00038192200009 0.42454001307 0.010782199912
          0.0011502399575 0.42426300049 -0.026677399874 -0.00026269699447 0.42522799969 0.0082401102409
          -0.0007951859734 0.42487800121 0.021574400365 -0.0010480900528 0.42426198721 0.026664700359
          0.00098219304346 0.42358499765 -0.021585699171 -0.00030279200291 0.47108599544 0.0084020299837
          0.00023545899603 0.47162699699 -0.0042138202116 0.00042214698624 0.47108501196 -0.0084231598303
          -0.00039537099656 0.47183901072 0.011003100313 -0.00086727098096 0.47152900696 0.022016000003
          0.00022297199757 0.47267299891 -0.0042093498632 0.00091226398945 0.47282099724 -0.022027300671
          0.00060898397351 0.47216901183 -0.013615599833 0.00037597000482 0.4731760025 -0.0084142098203
          5.9375601268e-05 0.47215801477 -5.967729976e-06 -0.00037516499287 0.47248500586 0.011005899869
          0.0011585899629 0.472202003 -0.027230100706 -0.00025780100259 0.47317698598 0.0084109799936
          -0.00079255597666 0.47282099724 0.022021599114 -0.0010398499435 0.47220098972 0.027217399329
          0.00098506105132 0.47152900696 -0.022032899782 -0.00029116100632 0.51994901896 0.008549420163
          0.0002430070017 0.52048802376 -0.0042876098305 0.00042729300912 0.51994901896 -0.0085706701502
          -0.00038551699254 0.52069801092 0.011196199805 -0.00085353897884 0.52038598061 0.022401999682
          0.00023230399529 0.52153301239 -0.0042830700986 0.00092594197486 0.52167797089 -0.02241330035
          0.0006174420123 0.52102702856 -0.013854299672 0.00038771898835 0.52203899622 -0.0085615804419
          6.7807297455e-05 0.52101701498 -5.9678000071e-06 -0.00036819899105 0.52134400606 0.011199000292
          0.0011670700042 0.52105498314 -0.027707200497 -0.00025260300026 0.5220400095 0.0085584996268
          -0.00078950700117 0.52167797089 0.022407600656 -0.0010314700194 0.52105402946 0.02769449912
          0.00098832999356 0.52038502693 -0.022419000044 -0.00027959700674 0.56959497929 0.0086747203022
          0.00025072001154 0.57013100386 -0.0043503600173 0.00043274200289 0.56959402561 -0.0086960699409
          -0.00037562800571 0.57033902407 0.011360400356 -0.00083999498747 0.5700250268 0.0227301009
          0.0002416990028 0.57117599249 -0.0043457602151 0.00093943299726 0.57131701708 -0.022741500288
          0.00062601297395 0.57066702843 -0.014057300054 0.00039939099224 0.57168501616 -0.0086868703365
          7.6354503108e-05 0.5706589818 -5.9679100559e-06 -0.00036103100865 0.57098501921 0.011363199912
          0.0011756699532 0.57069098949 -0.028112800792 -0.00024710199796 0.57168602943 0.0086839199066
          -0.00078603299335 0.57131701708 0.022735800594 -0.0010229699546 0.57068997622 0.028100199997
          0.0009920099983 0.5700250268 -0.022747199982 -0.00026813699515 0.6198989749 0.00877930969
          0.00025858599111 0.62043297291 -0.0044027399272 0.00043849498616 0.61989802122 -0.0088007301092
          -0.0003657299967 0.62063902617 0.01149739977 -0.00082668598043 0.62032401562 0.023003999144
          0.00025113500305 0.62147802114 -0.0043980898336 0.00095269002486 0.6216160059 -0.023015400395
          0.00063467898872 0.62096697092 -0.014226700179 0.00041095199413 0.62198901176 -0.0087914401665
          8.4999199316e-05 0.62095999718 -5.9679900914e-06 -0.00035367399687 0.62128597498 0.011500299908
          0.0011843600078 0.6209859848 -0.028451399878 -0.00024130099337 0.62199002504 0.0087885996327
          -0.00078212097287 0.6216160059 0.023009700701 -0.0010143599939 0.6209859848 0.028438799083
          0.00099611200858 0.62032401562 -0.023021100089 -0.00025681499392 0.6707469821 0.0088646700606
          0.00026659399737 0.67127901316 -0.0044455002062 0.0004445539962 0.6707469821 -0.008886160329
          -0.00035584901343 0.67148399353 0.01160930004 -0.00081365799997 0.67116701603 0.023227499798
          0.00026058999356 0.67232400179 -0.0044408198446 0.00096566701541 0.67245900631 -0.023238999769
          0.00064342399128 0.67181098461 -0.014364999719 0.0004223670112 0.67283797264 -0.008876780048
          9.3724600447e-05 0.67180502415 -5.968070127e-06 -0.00034613499884 0.67212998867 0.011612200178
          0.0011931200279 0.67182600498 -0.028727699071 -0.00023519700335 0.67283797264 0.008874040097
          -0.00077775900718 0.67245900631 0.023233300075 -0.001005679951 0.67182600498 0.028715200722
          0.0010006499942 0.67116701603 -0.023244699463 -0.00024566499633 0.72203302383 0.0089324302971
          0.00027473201044 0.72256201506 -0.0044794599526 0.00045092101209 0.72203201056 -0.0089539596811
          -0.00034600798972 0.72276598215 0.011698099785 -0.00080095801968 0.72244799137 0.023404899985
          0.000270043005 0.72360801697 -0.0044747400098 0.00097832095344 0.72373998165 -0.023416399956
          0.000652230985 0.72309201956 -0.014474900439 0.00043360001291 0.7241230011 -0.0089445197955
          0.00010251499771 0.72308802605 -5.9681401581e-06 -0.000338421989 0.72341299057 0.011701099575
          0.0012019500136 0.72310400009 -0.02894699946 -0.00022878800519 0.72412401438 0.0089418599382
          -0.00077293301001 0.72374099493 0.023410700262 -0.00099692004733 0.72310400009 0.028934499249
          0.0010056300089 0.72244799137 -0.023422200233 -0.00023471900204 0.77365899086 0.0089843301103
          0.00028299100813 0.77418702841 -0.004505480174 0.00045760101057 0.77365899086 -0.0090058902279
          -0.0003362300049 0.77438998222 0.011766199954 -0.00078862899682 0.77407097816 0.023540800437
          0.00027947500348 0.77523297071 -0.0045007402077 0.00099060696084 0.77536302805 -0.023552300408
          0.00066108698957 0.77471500635 -0.014558999799 0.00044462000369 0.7757499814 -0.0089964000508
          0.00011135700333 0.77471202612 -5.9682101892e-06 -0.00033054099185 0.77503597736 0.011769199744
          0.0012108200463 0.77472400665 -0.02911500074 -0.00022206999711 0.7757499814 0.0089937997982
          -0.00076762598474 0.77536302805 0.023546600714 -0.0009881069418 0.77472400665 0.029102599248
          0.0010110699804 0.77407097816 -0.023558199406 -0.00022400800663 0.82554101944 0.0090222395957
          0.00029136400553 0.82606697083 -0.0045245098881 0.00046459998703 0.82554000616 -0.0090438202024
          -0.00032653400558 0.82626897097 0.011815999635 -0.00077671499457 0.82594901323 0.02363999933
          0.00028886899236 0.82711297274 -0.0045197498985 0.0010024800431 0.82724100351 -0.023651599884
          0.00066997902468 0.82659399509 -0.014620600268 0.00045539499843 0.82763200998 -0.009034300223
          0.00012023599993 0.82659101486 -5.9682602114e-06 -0.00032249701326 0.82691597939 0.011819000356
          0.0012197199976 0.82660001516 -0.029237700626 -0.00021503800235 0.82763200998 0.009031759575
          -0.00076182099292 0.82724100351 0.02364590019 -0.00097925204318 0.82660001516 0.029225299135
          0.0010169999441 0.82594901323 -0.023657500744 -0.00021356200159 0.87760198116 0.0090481899679
          0.00029984500725 0.87812697887 -0.0045375498012 0.00047192600323 0.87760198116 -0.0090697696432
          -0.00031694199424 0.87832897902 0.011850199662 -0.00076525600161 0.87800699472 0.023707900196
          0.00029820698546 0.87917298079 -0.0045327800326 0.0010139100486 0.87929999828 -0.02371959947
          0.00067889597267 0.87865298986 -0.014662800357 0.00046589499107 0.87969297171 -0.0090602198616
          0.00012914299441 0.87865102291 -5.9682997744e-06 -0.00031429200317 0.87897497416 0.011853099801
          0.0012286499841 0.87865698338 -0.029321599752 -0.00020768400282 0.87969398499 0.0090577304363
          -0.00075549801113 0.87929999828 0.023713799194 -0.00097036501393 0.87865698338 0.029309300706
          0.0010234200163 0.87800699472 -0.02372550033 -0.00020340799529 0.92978101969 0.0090642999858
          0.00030842900742 0.93030500412 -0.0045456797816 0.00047958700452 0.92978101969 -0.0090858601034
          -0.0003074700071 0.93050599098 0.011871400289 -0.00075429398566 0.93018299341 0.023749999702
          0.00030747699202 0.93135100603 -0.0045408997685 0.0010248400504 0.93147599697 -0.023761799559
          0.00068782898597 0.93082898855 -0.014689000323 0.0004760909942 0.93187201023 -0.0090763103217
          0.00013806700008 0.93082797527 -5.9683297877e-06 -0.00030592898838 0.93115198612 0.011874400079
          0.0012375899823 0.93083202839 -0.029373699799 -0.00019999900542 0.93187201023 0.0090738497674
          -0.00074863701593 0.93147599697 0.023755900562 -0.00096145598218 0.93083202839 0.029361499473
          0.0010303599993 0.93018299341 -0.023767700419 -0.00019357400015 0.98202598095 0.0090728299692
          0.00031711498741 0.98254901171 -0.0045500099659 0.00048759698984 0.98202598095 -0.0090943798423
          -0.00029813501169 0.98274898529 0.011882700026 -0.00074386800407 0.982427001 0.02377229929
          0.00031666300492 0.98359501362 -0.0045452299528 0.0010352500249 0.98371899128 -0.023784099147
          0.0006967689842 0.98307299614 -0.014703099616 0.00048595599947 0.98411697149 -0.0090848198161
          0.000147002007 0.98307198286 -5.968359801e-06 -0.00029740299215 0.98339599371 0.011885699816
          0.0012465399923 0.98307400942 -0.029401199892 -0.00019197199435 0.98411697149 0.0090823899955
          -0.0007412119885 0.98371899128 0.02377820015 -0.00095253298059 0.98307400942 0.029389100149
          0.001037840033 0.982427001 -0.023790000007 -0.00018407900643 1.0342999697 0.0090761901811
          0.00032590000774 1.0348199606 -0.004551759921 0.00049596501049 1.0342999697 -0.009097719565
          -0.00028894699062 1.0350199938 0.011887299828 -0.00073400797555 1.034700036 0.023781100288
          0.00032575801015 1.035869956 -0.0045469799079 0.0010450900299 1.0359899998 -0.023792900145
          0.00070571101969 1.0353499651 -0.014708699659 0.00049547001254 1.0363899469 -0.0090881502256
          0.00015594100114 1.0353499651 -5.9683698055e-06 -0.00028871899121 1.035670042 0.011890299618
          0.0012554799905 1.0353499651 -0.029411999509 -0.00018359300157 1.0363899469 0.0090857604519
          -0.0007332059904 1.0359899998 0.023786999285 -0.00094360002549 1.0353499651 0.029400000349
          0.0010458800243 1.034700036 -0.023798799142 -0.00017495399516 1.0865800381 0.0090769100934
          0.00033478898695 1.0871100426 -0.0045521701686 0.00050471600844 1.0865800381 -0.0090984301642
          -0.00027992599644 1.0873099566 0.01188839972 -0.00072476197965 1.0869799852 0.023782899603
          0.00033474998781 1.0881500244 -0.0045473901555 0.0010543400422 1.088269949 -0.023794800043
          0.00071465200745 1.0876300335 -0.014709999785 0.00050460000057 1.0886700153 -0.0090888598934
          0.00016488099936 1.0876300335 -5.9683798099e-06 -0.00027986199711 1.0879499912 0.011891400442
          0.0012644199887 1.0876300335 -0.029414299875 -0.00017483999545 1.0886700153 0.0090864803642
          -0.00072457501665 1.088269949 0.023788800463 -0.00093466299586 1.0876300335 0.029402300715
          0.0010545200203 1.0869799852 -0.023800700903 -0.00023250500089 0.11259000003 0.0063607902266
          0.00010850599938 0.11902999878 -0.0031653100159 0.00022270300542 0.11258199811 -0.006375500001
          -0.00029511901084 0.12147399783 0.0082285497338 -0.00061542802723 0.11753900349 0.016543999314
          0.000100680998 0.13158500195 -0.0031098800246 0.00051764497766 0.1331319958 -0.016278199852
          0.00034908700036 0.12537300587 -0.010120799765 0.00018231499416 0.1378069967 -0.0061947400682
          -2.9187799555e-06 0.12534700334 -4.2724800551e-06 -0.0002763250086 0.12922400236 0.0081501500681
          0.00070527900243 0.12542499602 -0.020258300006 -0.00018436700338 0.1378069967 0.0061965598725
          -0.00051740801428 0.13313500583 0.016276000068 -0.00070321297972 0.12542699277 0.020244700834
          0.00060851097805 0.11754900217 -0.016544900835 7.6083301792e-06 0.11430999637 -0.0027918100823
          4.8800699005e-05 0.1163379997 -0.01466100011 2.1711699446e-05 0.12285900116 -0.0056252097711
          -2.4886001029e-06 0.10578999668 5.8236000768e-06 -3.3251100831e-05 0.11106000096 0.0073008001782
          -2.6624900784e-05 0.12285400182 0.0056260097772 -5.6004901126e-05 0.11633100361 0.014658099972
          0.00036468100734 0.16270199418 0.0066623901948 -0.00020471699827 0.16328200698 -0.0033573200926
          -0.00040851399535 0.16269800067 -0.0066953501664 0.00035205998574 0.20211200416 0.006984999869
          -0.00021481000294 0.20266599953 -0.0035142900888 -0.00041822198546 0.20211000741 -0.0070214699954
          0.00044297199929 0.16350899637 0.0087369903922 0.00043328499305 0.20288799703 0.0091480901465
          0.00093633099459 0.16319400072 0.017470600083 0.00093456002651 0.2025949955 0.018318099901
          -0.00017540600675 0.16433300078 -0.0033384400886 -0.0008116029785 0.16452200711 -0.01743859984
          -0.00056617101654 0.16385300457 -0.010817799717 -0.00019104400417 0.20370699465 -0.0035097999498
          -0.00085614697309 0.20387800038 -0.018343999982 -0.0005847819848 0.20322400331 -0.01133720018
          -0.00029777199961 0.1648170054 -0.0066496599466 -0.00032943100086 0.20418900251 -0.0070119397715
          -2.1982699764e-05 0.1638289988 -1.1544700101e-05 -3.2357998862e-05 0.20320099592 -1.1849600014e-05
          0.00039560999721 0.16416199505 0.0087174000219 0.00039501200081 0.20353099704 0.0091544501483
          -0.0011069299653 0.16392099857 -0.021608099341 -0.0011376000475 0.20328900218 -0.022672200575
          0.00025832300889 0.16481900215 0.0066380798817 0.00026523199631 0.20419199765 0.0069995801896
          0.00076475297101 0.16452500224 0.017421200871 0.00078947597649 0.203877002 0.018329100683
          0.0010635900544 0.16391900182 0.021586600691 0.0010726499604 0.2032880038 0.022647300735
          -0.0009769849712 0.1631949991 -0.017506100237 -0.0009975109715 0.2025949955 -0.018347200006
          0.00033664199873 0.24331000447 0.0072858198546 -0.00022516399622 0.2438659966 -0.0036664099898
          -0.00042557899724 0.24330699444 -0.0073219598271 0.00041899099597 0.2440879941 0.0095460899174
          0.00091243901988 0.24378700554 0.019107099622 -0.00020218599821 0.24491199851 -0.0036600900348
          -0.000865658978 0.24508099258 -0.019131299108 -0.00059297401458 0.24442400038 -0.011828299612
          -0.00034112899448 0.24540099502 -0.0073101599701 -4.3934298446e-05 0.24440300465 -1.1765399904e-05
          0.00038177499664 0.24473400414 0.0095497798175 -0.0011416800553 0.24448299408 -0.023650100455
          0.00025448200176 0.24540300667 0.0072988597676 0.00077609997243 0.24508099258 0.019116099924
          0.0010538999923 0.2444819957 0.02362559922 -0.00099859805778 0.24378700554 -0.019137900323
          0.0003207300033 0.28617200255 0.0075604799204 -0.00023577199318 0.28672501445 -0.0038035400212
          -0.00043323799036 0.2861700058 -0.0075972401537 0.00040539100883 0.28694400191 0.0099047804251
          0.00089488399681 0.28664198518 0.019826199859 -0.00021540699527 0.28777000308 -0.0037971399724
          -0.00088573701214 0.28793400526 -0.01984860003 -0.00060542800929 0.28727900982 -0.012271800078
          -0.00035774099524 0.28826099634 -0.0075840898789 -5.5749900639e-05 0.28725999594 -1.178850016e-05
          0.00037244599662 0.28758999705 0.0099088102579 -0.0011552700307 0.28733199835 -0.024537499994
          0.00024713299354 0.2882629931 0.0075731100515 0.00077265902655 0.28793400526 0.019833700731
          0.00104379002 0.28733101487 0.024513000622 -0.0010047799442 0.28664198518 -0.01985700056
          0.00030484999297 0.33053100109 0.0078072301112 -0.00024703599047 0.33108100295 -0.0039272299036
          -0.00044167801389 0.33052998781 -0.0078443000093 0.00039163700421 0.33129799366 0.010228199884
          0.00087639002595 0.33099400997 0.020472599193 -0.00022864999482 0.33212599158 -0.0039205797948
          -0.00090379500762 0.33228600025 -0.020495500416 -0.00061766197905 0.33163198829 -0.012671699747
          -0.00037372799125 0.33262100816 -0.0078311096877 -6.7964501795e-05 0.33161500096 -1.1782400179e-05
          0.00036188701051 0.3319439888 0.010232299566 -0.0011672900291 0.33167999983 -0.025336999446
          0.00023865800176 0.33262300491 0.0078205000609 0.00076646101661 0.33228600025 0.02048089914
          0.001031390042 0.33167898655 0.025312500075 -0.0010109100258 0.33099400997 -0.020503599197
          0.00028863700572 0.37623500824 0.0080277901143 -0.00025853500119 0.37678200006 -0.0040376801044
          -0.00045044301078 0.37623399496 -0.0080652004108 0.00037742301356 0.37699699402 0.010517200455
          0.00085780199151 0.3766900003 0.021050399169 -0.00024221300555 0.3778269887 -0.004030900076
          -0.0009223750094 0.37798300385 -0.021073300391 -0.00063020898961 0.37732899189 -0.013028900139
          -0.00039007101441 0.3783249855 -0.008051619865 -8.0503799836e-05 0.37731400132 -1.1784600247e-05
          0.00035101399408 0.37764298916 0.010521399789 -0.0011799300555 0.37737199664 -0.026051200926
          0.00022981400252 0.37832599878 0.0080413697287 0.00076011597412 0.37798300385 0.021058799699
          0.0010189400055 0.37737101316 0.026026800275 -0.0010175500065 0.3766900003 -0.021081600338
          0.0002722950012 0.42313298583 0.0082229096442 -0.00027040499845 0.42367699742 -0.0041354098357
          -0.00045967201004 0.42313200235 -0.0082606002688 0.00036304199602 0.42388999462 0.010772800073
          0.00083915097639 0.42358198762 0.021561399102 -0.00025603899849 0.42472299933 -0.0041284798644
          -0.00094096799148 0.4248740077 -0.021584300324 -0.00064308202127 0.42422199249 -0.013344899751
          -0.0004065480025 0.4252229929 -0.0082467300817 -9.333719936e-05 0.42420899868 -1.1784300114e-05
          0.00033979699947 0.42453700304 0.010777099989 -0.0011928200256 0.42425900698 -0.026683099568
          0.00022053500288 0.42522498965 0.0082367695868 0.00075319397729 0.42487499118 0.021570000798
          0.0010061600478 0.42425900698 0.026658700779 -0.0010247200262 0.42358198762 -0.021592900157
          0.00025583599927 0.4710829854 0.0083935698494 -0.00028256498626 0.47162398696 -0.0042209001258
          -0.0004693059891 0.47108200192 -0.0084315100685 0.00034845000482 0.4718349874 0.010996400379
          0.00082048302284 0.47152501345 0.022008499131 -0.00027007699828 0.47266900539 -0.0042138397694
          -0.00095958297607 0.47281700373 -0.022031400353 -0.0006562009803 0.4721660018 -0.013621300459
          -0.00042312900769 0.47317299247 -0.0084173800424 -0.00010643000132 0.47215399146 -1.1784600247e-05
          0.00032824499067 0.47248199582 0.011000799946 -0.0012059699511 0.47219800949 -0.027235699818
          0.00021084499895 0.47317400575 0.0084076998755 0.00074576801853 0.4728179872 0.022017199546
          0.00099312700331 0.47219800949 0.027211399749 -0.0010323800379 0.47152501345 -0.022040100768
          0.00023931899341 0.51994502544 0.0085409097373 -0.00029499898665 0.52048397064 -0.0042947200127
          -0.00047933700262 0.51994401217 -0.0085790604353 0.00033370999154 0.52069401741 0.01118949987
          0.00080186501145 0.52038097382 0.02239440009 -0.00028429500526 0.52152901888 -0.0042875399813
          -0.00097814702895 0.52167397738 -0.022417400032 -0.00066954502836 0.52102297544 -0.013860000297
          -0.00043976400048 0.52203601599 -0.0085647003725 -0.00011974699737 0.52101302147 -1.1784800336e-05
          0.00031639199005 0.52134001255 0.011193900369 -0.001219340018 0.52105098963 -0.027712799609
          0.00020076100191 0.52203702927 0.0085552595556 0.00073783297557 0.52167397738 0.022403299809
          0.00097985903267 0.52104997635 0.02768849954 -0.0010405300418 0.52038097382 -0.022426199168
          0.00022279200493 0.5695899725 0.0086661698297 -0.00030767600401 0.57012599707 -0.0043574799784
          -0.00048975000391 0.56958901882 -0.0087045002729 0.00031885600765 0.57033497095 0.011353599839
          0.00078335701255 0.57002097368 0.022722499445 -0.00029865500983 0.57117199898 -0.0043502100743
          -0.00099660200067 0.57131302357 -0.022745499387 -0.00068308098707 0.57066297531 -0.014062999748
          -0.0004564000119 0.57168102264 -0.0086899502203 -0.00013325900363 0.57065498829 -1.1785000424e-05
          0.00030426000012 0.5709810257 0.01135809999 -0.0012328999583 0.57068699598 -0.028118500486
          0.00019029699615 0.57168197632 0.0086807096377 0.00072939501842 0.57131302357 0.022731499746
          0.00096639402909 0.5706859827 0.028094200417 -0.0010491800494 0.57002097368 -0.022754499689
          0.00020630199288 0.61989402771 0.0087707201019 -0.0003205719986 0.62042802572 -0.0044098799117
          -0.00050053297309 0.61989301443 -0.0088091902435 0.00030392900226 0.62063497305 0.011490699835
          0.00076501799049 0.62031900883 0.022996300831 -0.00031312101055 0.62147402763 -0.0044025299139
          -0.0010148900328 0.62161201239 -0.023019399494 -0.00069677701686 0.62096202374 -0.014232399873
          -0.00047299001017 0.62198501825 -0.008794490248 -0.00014693300182 0.62095499039 -1.1785199604e-05
          0.00029187300242 0.62128102779 0.011495199986 -0.0012466199696 0.62098199129 -0.028457000852
          0.00017946600565 0.62198597193 0.008785430342 0.00072045298293 0.62161201239 0.023005399853
          0.00095276098 0.62098097801 0.028432799503 -0.0010583100375 0.62031900883 -0.023028500378
          0.00018989600358 0.67074197531 0.0088560599834 -0.00033366400748 0.67127299309 -0.0044526499696
          -0.00051167601487 0.67074102163 -0.008894640021 0.00028896398726 0.67147898674 0.011602600105
          0.0007469059783 0.67116200924 0.023219799623 -0.00032766000368 0.672318995 -0.0044452399015
          -0.0010329500074 0.6724550128 -0.023242900148 -0.00071060599294 0.67180597782 -0.014370700344
          -0.00048948900076 0.67283302546 -0.0088798096403 -0.0001607430022 0.67180001736 -1.1785399693e-05
          0.00027924901224 0.67212498188 0.011607100256 -0.0012604700169 0.67182099819 -0.028733300045
          0.00016827799845 0.67283397913 0.0088708903641 0.00071100698551 0.6724550128 0.023228999227
          0.00093898898922 0.67182099819 0.028709100559 -0.0010679300176 0.67116200924 -0.023252099752
          0.00017361900245 0.72202700377 0.0089237904176 -0.00034692900954 0.72255700827 -0.0044866199605
          -0.00052317098016 0.72202700377 -0.0089624598622 0.00027399501414 0.72276097536 0.01169139985
          0.0007290780195 0.72244298458 0.02339719981 -0.00034224099363 0.72360301018 -0.0044791498221
          -0.001050730003 0.72373497486 -0.023420400918 -0.0007245420129 0.72308701277 -0.014480600134