<?xml version="1.0"?>
<!--Shaheen-->
<VTKFile type="UnstructuredGrid" version="0.1" byte_order="LittleEndian">
  <UnstructuredGrid>
    <Piece NumberOfPoints="791" NumberOfCells="973">
      <Points>
        <DataArray type="Float32" NumberOfComponents="3" format="ascii">
-0.190211 -0.0618034 -0.866203 -0.17591 0.0347644 -0.761951 -0.166717 -0.0910144 -0.722131 0 -0.0768927 -0.886453 0.190211 -0.0618034 -0.866203 0.166717 -0.0910144 -0.722131 0.17591 0.0347644 -0.761951 -0.190211 0.0618034 -0.866203 -0.181592 0.2 -0.786562 -0.117557 0.161803 -0.847614 0 0.0768927 -0.886453 0.181592 0.2 -0.786562 0.190211 0.0618034 -0.866203 0.117557 0.161803 -0.847614 -0.181592 -0.2 -0.786562 -0.117557 -0.161803 -0.847614 0.181592 -0.2 -0.786562 0.117557 -0.161803 -0.847614 -0.151842 0.1125 -0.6577 0 0.2 -0.792573 0.151842 0.1125 -0.6577 -0.151842 0.225 -0.6577 0.151842 0.225 -0.6577 0.151842 -0.225 -0.6577 0 -0.2 -0.792573 -0.151842 -0.225 -0.6577 0 -7.38343e-17 -0.9 0.888988 -0.0695288 0.4 0.781994 0.0347644 0.4 0.888988 0.0695288 0.4 0.888988 -0.0695288 2.2226e-15 0.781994 0.0347644 2.2357e-15 0.888988 0.0695288 2.2226e-15 0.741126 -0.0910144 0.4 0.741126 -0.0910144 2.24071e-15 0.807252 -0.182029 0.4 0.807252 -0.182029 2.23261e-15 0.568006 0.0347644 0.4 0.542748 0.182029 0.4 0.675 0.1125 0.4 0.568006 0.0347644 2.26191e-15 0.542748 0.182029 2.265e-15 0.675 0.1125 2.2488e-15 0.461012 0.0695288 0.4 0.461012 0.0695288 2.27501e-15 0.675 0 0.4 0.675 0 2.2488e-15 0.608874 -0.0910144 0.4 0.608874 -0.0910144 2.2569e-15 0.675 0.225 0.4 0.675 0.225 2.2488e-15 0.461012 -0.0695288 0.4 0.461012 -0.0695288 2.27501e-15 0.542748 -0.182029 0.4 0.542748 -0.182029 2.265e-15 0.675 -0.225 0.4 0.675 -0.225 2.2488e-15 0.807252 0.182029 0.4 0.807252 0.182029 2.23261e-15 0.888988 -0.0695288 0.8 0.781994 0.0347644 0.8 0.888988 0.0695288 0.8 0.741126 -0.0910144 0.8 0.807252 -0.182029 0.8 0.568006 0.0347644 0.8 0.542748 0.182029 0.8 0.675 0.1125 0.8 0.461012 0.0695288 0.8 0.675 0 0.8 0.608874 -0.0910144 0.8 0.675 0.225 0.8 0.461012 -0.0695288 0.8 0.542748 -0.182029 0.8 0.675 -0.225 0.8 0.807252 0.182029 0.8 0.888988 -0.0695288 1.2 0.781994 0.0347644 1.2 0.888988 0.0695288 1.2 0.741126 -0.0910144 1.2 0.807252 -0.182029 1.2 0.568006 0.0347644 1.2 0.542748 0.182029 1.2 0.675 0.1125 1.2 0.461012 0.0695288 1.2 0.675 0 1.2 0.608874 -0.0910144 1.2 0.675 0.225 1.2 0.461012 -0.0695288 1.2 0.542748 -0.182029 1.2 0.675 -0.225 1.2 0.807252 0.182029 1.2 0.888988 -0.0695288 1.6 0.781994 0.0347644 1.6 0.888988 0.0695288 1.6 0.741126 -0.0910144 1.6 0.807252 -0.182029 1.6 0.568006 0.0347644 1.6 0.542748 0.182029 1.6 0.675 0.1125 1.6 0.461012 0.0695288 1.6 0.675 0 1.6 0.608874 -0.0910144 1.6 0.675 0.225 1.6 0.461012 -0.0695288 1.6 0.542748 -0.182029 1.6 0.675 -0.225 1.6 0.807252 0.182029 1.6 0.888988 -0.0695288 2 0.781994 0.0347644 2 0.888988 0.0695288 2 0.741126 -0.0910144 2 0.807252 -0.182029 2 0.568006 0.0347644 2 0.542748 0.182029 2 0.675 0.1125 2 0.461012 0.0695288 2 0.675 0 2 0.608874 -0.0910144 2 0.675 0.225 2 0.461012 -0.0695288 2 0.542748 -0.182029 2 0.675 -0.225 2 0.807252 0.182029 2 0.888988 -0.0695288 2.4 0.781994 0.0347644 2.4 0.888988 0.0695288 2.4 0.741126 -0.0910144 2.4 0.807252 -0.182029 2.4 0.568006 0.0347644 2.4 0.542748 0.182029 2.4 0.675 0.1125 2.4 0.461012 0.0695288 2.4 0.675 0 2.4 0.608874 -0.0910144 2.4 0.675 0.225 2.4 0.461012 -0.0695288 2.4 0.542748 -0.182029 2.4 0.675 -0.225 2.4 0.807252 0.182029 2.4 0.888988 -0.0695288 2.8 0.781994 0.0347644 2.8 0.888988 0.0695288 2.8 0.741126 -0.0910144 2.8 0.807252 -0.182029 2.8 0.568006 0.0347644 2.8 0.542748 0.182029 2.8 0.675 0.1125 2.8 0.461012 0.0695288 2.8 0.675 0 2.8 0.608874 -0.0910144 2.8 0.675 0.225 2.8 0.461012 -0.0695288 2.8 0.542748 -0.182029 2.8 0.675 -0.225 2.8 0.807252 0.182029 2.8 0.888988 -0.0695288 3.2 0.781994 0.0347644 3.2 0.888988 0.0695288 3.2 0.741126 -0.0910144 3.2 0.807252 -0.182029 3.2 0.568006 0.0347644 3.2 0.542748 0.182029 3.2 0.675 0.1125 3.2 0.461012 0.0695288 3.2 0.675 0 3.2 0.608874 -0.0910144 3.2 0.675 0.225 3.2 0.461012 -0.0695288 3.2 0.542748 -0.182029 3.2 0.675 -0.225 3.2 0.807252 0.182029 3.2 0.888988 -0.0695288 3.6 0.781994 0.0347644 3.6 0.888988 0.0695288 3.6 0.741126 -0.0910144 3.6 0.807252 -0.182029 3.6 0.568006 0.0347644 3.6 0.542748 0.182029 3.6 0.675 0.1125 3.6 0.461012 0.0695288 3.6 0.675 0 3.6 0.608874 -0.0910144 3.6 0.675 0.225 3.6 0.461012 -0.0695288 3.6 0.542748 -0.182029 3.6 0.675 -0.225 3.6 0.807252 0.182029 3.6 0.888988 -0.0695288 4 0.781994 0.0347644 4 0.888988 0.0695288 4 0.741126 -0.0910144 4 0.807252 -0.182029 4 0.568006 0.0347644 4 0.542748 0.182029 4 0.675 0.1125 4 0.461012 0.0695288 4 0.675 0 4 0.608874 -0.0910144 4 0.675 0.225 4 0.461012 -0.0695288 4 0.542748 -0.182029 4 0.675 -0.225 4 0.807252 0.182029 4 0.888988 -0.0695288 4.4 0.781994 0.0347644 4.4 0.888988 0.0695288 4.4 0.741126 -0.0910144 4.4 0.807252 -0.182029 4.4 0.568006 0.0347644 4.4 0.542748 0.182029 4.4 0.675 0.1125 4.4 0.461012 0.0695288 4.4 0.675 0 4.4 0.608874 -0.0910144 4.4 0.675 0.225 4.4 0.461012 -0.0695288 4.4 0.542748 -0.182029 4.4 0.675 -0.225 4.4 0.807252 0.182029 4.4 0.888988 -0.0695288 4.8 0.781994 0.0347644 4.8 0.888988 0.0695288 4.8 0.741126 -0.0910144 4.8 0.807252 -0.182029 4.8 0.568006 0.0347644 4.8 0.542748 0.182029 4.8 0.675 0.1125 4.8 0.461012 0.0695288 4.8 0.675 0 4.8 0.608874 -0.0910144 4.8 0.675 0.225 4.8 0.461012 -0.0695288 4.8 0.542748 -0.182029 4.8 0.675 -0.225 4.8 0.807252 0.182029 4.8 0.888988 -0.0695288 5.2 0.781994 0.0347644 5.2 0.888988 0.0695288 5.2 0.741126 -0.0910144 5.2 0.807252 -0.182029 5.2 0.568006 0.0347644 5.2 0.542748 0.182029 5.2 0.675 0.1125 5.2 0.461012 0.0695288 5.2 0.675 0 5.2 0.608874 -0.0910144 5.2 0.675 0.225 5.2 0.461012 -0.0695288 5.2 0.542748 -0.182029 5.2 0.675 -0.225 5.2 0.807252 0.182029 5.2 0.888988 -0.0695288 5.6 0.781994 0.0347644 5.6 0.888988 0.0695288 5.6 0.741126 -0.0910144 5.6 0.807252 -0.182029 5.6 0.568006 0.0347644 5.6 0.542748 0.182029 5.6 0.675 0.1125 5.6 0.461012 0.0695288 5.6 0.675 0 5.6 0.608874 -0.0910144 5.6 0.675 0.225 5.6 0.461012 -0.0695288 5.6 0.542748 -0.182029 5.6 0.675 -0.225 5.6 0.807252 0.182029 5.6 0.888988 -0.0695288 6 0.781994 0.0347644 6 0.888988 0.0695288 6 0.741126 -0.0910144 6 0.807252 -0.182029 6 0.568006 0.0347644 6 0.542748 0.182029 6 0.675 0.1125 6 0.461012 0.0695288 6 0.675 0 6 0.608874 -0.0910144 6 0.675 0.225 6 0.461012 -0.0695288 6 0.542748 -0.182029 6 0.675 -0.225 6 0.807252 0.182029 6 0.888988 -0.0695288 6.4 0.781994 0.0347644 6.4 0.888988 0.0695288 6.4 0.741126 -0.0910144 6.4 0.807252 -0.182029 6.4 0.568006 0.0347644 6.4 0.542748 0.182029 6.4 0.675 0.1125 6.4 0.461012 0.0695288 6.4 0.675 0 6.4 0.608874 -0.0910144 6.4 0.675 0.225 6.4 0.461012 -0.0695288 6.4 0.542748 -0.182029 6.4 0.675 -0.225 6.4 0.807252 0.182029 6.4 0.888988 -0.0695288 6.8 0.781994 0.0347644 6.8 0.888988 0.0695288 6.8 0.741126 -0.0910144 6.8 0.807252 -0.182029 6.8 0.568006 0.0347644 6.8 0.542748 0.182029 6.8 0.675 0.1125 6.8 0.461012 0.0695288 6.8 0.675 0 6.8 0.608874 -0.0910144 6.8 0.675 0.225 6.8 0.461012 -0.0695288 6.8 0.542748 -0.182029 6.8 0.675 -0.225 6.8 0.807252 0.182029 6.8 0.888988 -0.0695288 7.2 0.781994 0.0347644 7.2 0.888988 0.0695288 7.2 0.741126 -0.0910144 7.2 0.807252 -0.182029 7.2 0.568006 0.0347644 7.2 0.542748 0.182029 7.2 0.675 0.1125 7.2 0.461012 0.0695288 7.2 0.675 0 7.2 0.608874 -0.0910144 7.2 0.675 0.225 7.2 0.461012 -0.0695288 7.2 0.542748 -0.182029 7.2 0.675 -0.225 7.2 0.807252 0.182029 7.2 0.888988 -0.0695288 7.6 0.781994 0.0347644 7.6 0.888988 0.0695288 7.6 0.741126 -0.0910144 7.6 0.807252 -0.182029 7.6 0.568006 0.0347644 7.6 0.542748 0.182029 7.6 0.675 0.1125 7.6 0.461012 0.0695288 7.6 0.675 0 7.6 0.608874 -0.0910144 7.6 0.675 0.225 7.6 0.461012 -0.0695288 7.6 0.542748 -0.182029 7.6 0.675 -0.225 7.6 0.807252 0.182029 7.6 0.695729 -0.0695288 -0.553408 0.611995 0.0347644 -0.486803 0.695729 0.0695288 -0.553408 0.580011 -0.0910144 -0.461362 0.631762 -0.182029 -0.502526 0.444526 0.0347644 -0.353592 0.424759 0.182029 -0.337869 0.528261 0.1125 -0.420197 0.360792 0.0695288 -0.286987 0.528261 0 -0.420197 0.47651 -0.0910144 -0.379033 0.528261 0.225 -0.420197 0.360792 -0.0695288 -0.286987 0.424759 -0.182029 -0.337869 0.528261 -0.225 -0.420197 0.631762 0.182029 -0.502526 0.127774 0.0347644 -0.553448 0.122092 0.182029 -0.528838 0.103705 0.0695288 -0.449197 0.151842 0 -0.6577 0.136967 -0.0910144 -0.593269 0.103705 -0.0695288 -0.449197 0.122092 -0.182029 -0.528838 -0.888988 -0.0695288 2.2226e-15 -0.781994 0.0347644 2.2357e-15 -0.888988 0.0695288 2.2226e-15 -0.888988 -0.0695288 0.4 -0.781994 0.0347644 0.4 -0.888988 0.0695288 0.4 -0.741126 -0.0910144 2.24071e-15 -0.741126 -0.0910144 0.4 -0.807252 -0.182029 2.23261e-15 -0.807252 -0.182029 0.4 -0.568006 0.0347644 2.26191e-15 -0.542748 0.182029 2.265e-15 -0.675 0.1125 2.2488e-15 -0.568006 0.0347644 0.4 -0.542748 0.182029 0.4 -0.675 0.1125 0.4 -0.461012 0.0695288 2.27501e-15 -0.461012 0.0695288 0.4 -0.675 0 2.2488e-15 -0.675 0 0.4 -0.608874 -0.0910144 2.2569e-15 -0.608874 -0.0910144 0.4 -0.675 0.225 2.2488e-15 -0.675 0.225 0.4 -0.461012 -0.0695288 2.27501e-15 -0.461012 -0.0695288 0.4 -0.542748 -0.182029 2.265e-15 -0.542748 -0.182029 0.4 -0.675 -0.225 2.2488e-15 -0.675 -0.225 0.4 -0.807252 0.182029 2.23261e-15 -0.807252 0.182029 0.4 -0.888988 -0.0695288 0.8 -0.781994 0.0347644 0.8 -0.888988 0.0695288 0.8 -0.741126 -0.0910144 0.8 -0.807252 -0.182029 0.8 -0.568006 0.0347644 0.8 -0.542748 0.182029 0.8 -0.675 0.1125 0.8 -0.461012 0.0695288 0.8 -0.675 0 0.8 -0.608874 -0.0910144 0.8 -0.675 0.225 0.8 -0.461012 -0.0695288 0.8 -0.542748 -0.182029 0.8 -0.675 -0.225 0.8 -0.807252 0.182029 0.8 -0.888988 -0.0695288 1.2 -0.781994 0.0347644 1.2 -0.888988 0.0695288 1.2 -0.741126 -0.0910144 1.2 -0.807252 -0.182029 1.2 -0.568006 0.0347644 1.2 -0.542748 0.182029 1.2 -0.675 0.1125 1.2 -0.461012 0.0695288 1.2 -0.675 0 1.2 -0.608874 -0.0910144 1.2 -0.675 0.225 1.2 -0.461012 -0.0695288 1.2 -0.542748 -0.182029 1.2 -0.675 -0.225 1.2 -0.807252 0.182029 1.2 -0.888988 -0.0695288 1.6 -0.78199
[...]
      <PointData>
        <DataArray type="Float32" Name="displacement" NumberOfComponents="3" format="ascii">
0.0914616 3.89345e-05 0.0147111 0.0998569 -2.05134e-05 0.0137869 0.103094 5.89753e-05 0.0131599 0.0899107 2.92368e-06 -2.40958e-08 0.0914624 -2.89338e-05 -0.0147105 0.103092 -4.91889e-05 -0.0131595 0.0998555 2.99907e-05 -0.013787 0.0914673 -3.21221e-05 0.0146972 0.097719 -0.000122241 0.0143988 0.0929073 -2.68631e-05 0.00906444 0.0899268 3.19431e-06 -2.49877e-07 0.0977177 0.000131922 -0.014401 0.0914653 4.19869e-05 -0.0146972 0.0929003 3.56916e-05 -0.00906486 0.0977466 0.000122568 0.0143837 0.0929078 4.6378e-05 0.0090652 0.0977482 -0.000112903 -0.0143816 0.0929174 -3.77791e-05 -0.00906494 0.108408 -5.90189e-05 0.012064 0.0970929 4.93305e-06 1.47907e-07 0.108411 6.95008e-05 -0.0120643 0.108366 -5.80736e-05 0.0120649 0.108367 6.845e-05 -0.0120659 0.10839 -5.52358e-05 -0.0120691 0.0970837 4.98568e-06 -3.37154e-08 0.108391 6.54391e-05 0.0120704 0.0889116 2.97847e-06 -1.10725e-07 0.205497 6.31024e-05 -0.0789702 0.205429 0.000120024 -0.0684146 0.205492 0.000161082 -0.0789831 0.166922 4.68912e-05 -0.0779465 0.166897 8.9421e-05 -0.067923 0.166916 0.00012419 -0.077948 0.205409 8.28345e-05 -0.064378 0.166884 6.5589e-05 -0.0640745 0.20541 2.85022e-05 -0.0709003 0.166852 1.55241e-05 -0.0702693 0.205421 8.34201e-05 -0.0473192 0.205378 1.80162e-05 -0.0448366 0.205381 0.000101972 -0.0578735 0.16693 5.53346e-05 -0.0478594 0.166902 -1.28685e-05 -0.0454969 0.166872 6.77894e-05 -0.0578792 0.20547 4.27028e-05 -0.0367634 0.167016 1.20816e-05 -0.0378696 0.205407 0.000101465 -0.0578648 0.166898 7.58857e-05 -0.0578788 0.205403 0.00011963 -0.0513408 0.166907 9.93604e-05 -0.0516707 0.205325 0.000100697 -0.0578836 0.166811 7.15453e-05 -0.0578794 0.205476 0.000139631 -0.0367554 0.167018 0.000115924 -0.03786 0.205394 0.000174957 -0.0448117 0.166916 0.000154123 -0.0454741 0.205349 0.000102096 -0.0578533 0.166835 8.20636e-05 -0.0578498 0.205394 0.000184778 -0.0709236 0.166836 0.000146076 -0.0702927 0.245892 9.62798e-05 -0.0799463 0.245838 0.000145884 -0.0689134 0.245886 0.000182692 -0.0799561 0.245821 0.000112706 -0.0646882 0.245814 6.39247e-05 -0.0715057 0.245838 0.000112308 -0.046836 0.245801 5.46096e-05 -0.0442373 0.245798 0.000129275 -0.0578801 0.245889 7.56106e-05 -0.0357939 0.245822 0.000129025 -0.0578722 0.245822 0.000144841 -0.0510436 0.245745 0.000129865 -0.0578876 0.245894 0.000161216 -0.0357851 0.245817 0.000192928 -0.0442113 0.245769 0.000128356 -0.0578562 0.245799 0.000204679 -0.0715308 0.288036 0.000128687 -0.0808324 0.287985 0.000173169 -0.0693549 0.28803 0.000207113 -0.0808436 0.28797 0.000143167 -0.064961 0.287967 9.93782e-05 -0.0720531 0.287985 0.000141816 -0.0463955 0.28795 8.89949e-05 -0.0436932 0.287948 0.000157596 -0.0578809 0.288029 0.000107914 -0.0349128 0.28797 0.000157479 -0.0578728 0.28797 0.000171668 -0.0507712 0.287901 0.00015766 -0.057889 0.288035 0.000186129 -0.0349036 0.287966 0.00021538 -0.0436663 0.287924 0.000157375 -0.0578564 0.287951 0.000226223 -0.0720788 0.331747 0.000162155 -0.0816298 0.331701 0.000201573 -0.069755 0.331742 0.000232485 -0.081641 0.331689 0.000174357 -0.0652086 0.331685 0.000135375 -0.0725461 0.331701 0.000172397 -0.0459989 0.331669 0.000124983 -0.043203 0.331668 0.000187083 -0.0578827 0.331741 0.000141511 -0.0341179 0.331688 0.000186949 -0.0578743 0.331689 0.000199341 -0.0505265 0.331625 0.000187257 -0.0578912 0.331747 0.000211536 -0.0341084 0.331685 0.000238138 -0.0431753 0.331647 0.000186727 -0.0578575 0.331669 0.000249378 -0.0725728 0.376866 0.000196346 -0.0823423 0.376825 0.00023084 -0.0701122 0.376861 0.000258897 -0.0823539 0.376814 0.000206455 -0.0654296 0.376812 0.000172128 -0.0729868 0.376825 0.000203808 -0.0456446 0.376796 0.000161517 -0.0427652 0.376795 0.000217421 -0.0578844 0.37686 0.000175793 -0.0334082 0.376813 0.000217298 -0.0578757 0.376814 0.000227966 -0.0503078 0.376756 0.000217558 -0.057893 0.376866 0.000238065 -0.0333984 0.376812 0.000262133 -0.0427367 0.376778 0.000217114 -0.0578584 0.376796 0.000273464 -0.0730142 0.423237 0.000231191 -0.0829727 0.4232 0.000260949 -0.0704282 0.423231 0.000286226 -0.0829844 0.423191 0.000239251 -0.0656252 0.42319 0.000209419 -0.0733765 0.4232 0.000235966 -0.0453313 0.423173 0.000198627 -0.042378 0.423173 0.000248544 -0.0578858 0.423231 0.000210724 -0.0327805 0.42319 0.00024843 -0.057877 0.423191 0.000257446 -0.0501145 0.423138 0.000248674 -0.0578947 0.423236 0.000265501 -0.0327704 0.423189 0.000287128 -0.0423488 0.42316 0.000248252 -0.0578593 0.423173 0.000298601 -0.0734047 0.470708 0.000266567 -0.0835241 0.470675 0.000291788 -0.0707047 0.470702 0.000314412 -0.0835361 0.470669 0.000272674 -0.0657964 0.470668 0.000247141 -0.0737176 0.470675 0.000268772 -0.0450572 0.470651 0.00023617 -0.0420393 0.470652 0.00028036 -0.0578872 0.470702 0.000246182 -0.0322315 0.470667 0.000280255 -0.0578782 0.470669 0.000287685 -0.0499454 0.47062 0.000280478 -0.0578963 0.470708 0.000293789 -0.0322211 0.470668 0.000313078 -0.0420096 0.470643 0.00028009 -0.0578601 0.470652 0.000324675 -0.0737463 0.519136 0.000302369 -0.0840002 0.519107 0.000323278 -0.0709436 0.51913 0.000343379 -0.0840123 0.519103 0.000306618 -0.0659443 0.519102 0.000285172 -0.074012 0.519107 0.00030213 -0.0448207 0.519086 0.000274031 -0.041747 0.519087 0.000312776 -0.0578885 0.51913 0.000282062 -0.0317576 0.5191 0.000312681 -0.0578793 0.519103 0.000318605 -0.0497995 0.519059 0.000312884 -0.0578977 0.519136 0.000322854 -0.031747 0.519102 0.000339922 -0.0417168 0.519081 0.000312528 -0.0578609 0.519086 0.000351638 -0.0740413 0.568384 0.000338493 -0.0844051 0.568359 0.000355338 -0.0711467 0.568378 0.000373061 -0.0844173 0.568356 0.000340991 -0.0660701 0.568356 0.000323398 -0.0742624 0.568359 0.000335951 -0.0446197 0.56834 0.000312094 -0.0414986 0.568341 0.000345709 -0.0578896 0.568377 0.000318259 -0.0313548 0.568353 0.000345623 -0.0578803 0.568356 0.000350128 -0.0496755 0.568317 0.000345806 -0.0578989 0.568384 0.000352628 -0.031344 0.568356 0.000367603 -0.041468 0.568339 0.000345482 -0.0578616 0.56834 0.000379429 -0.0742922 0.618322 0.00037484 -0.0847431 0.6183 0.000387892 -0.0713163 0.618316 0.000403395 -0.0847554 0.618299 0.000375704 -0.0661751 0.6183 0.000361706 -0.0744715 0.6183 0.000370147 -0.0444519 0.618283 0.000350249 -0.0412913 0.618285 0.000379077 -0.0578906 0.618316 0.000354674 -0.0310187 0.618296 0.000379 -0.0578812 0.618299 0.000382182 -0.049572 0.618264 0.000379163 -0.0579001 0.618322 0.00038305 -0.0310077 0.6183 0.000396072 -0.0412604 0.618286 0.000378872 -0.0578623 0.618284 0.000407999 -0.0745016 0.66883 0.000411315 -0.085019 0.668812 0.000420869 -0.0714549 0.668824 0.000434325 -0.0850314 0.668812 0.000410673 -0.066261 0.668813 0.000399991 -0.0746422 0.668812 0.00040464 -0.044315 0.668797 0.000388391 -0.0411222 0.668798 0.000412805 -0.0578915 0.668824 0.00039121 -0.0307444 0.668809 0.000412737 -0.057882 0.668812 0.000414698 -0.0494876 0.668781 0.00041288 -0.0579011 0.66883 0.000414061 -0.0307333 0.668813 0.000425284 -0.041091 0.668802 0.000412621 -0.057863 0.668797 0.000437302 -0.0746727 0.719797 0.000447831 -0.0852381 0.719782 0.000454204 -0.071565 0.719791 0.000465801 -0.0852505 0.719783 0.00044582 -0.0663292 0.719785 0.000438151 -0.0747777 0.719781 0.000439352 -0.0442064 0.719768 0.000426418 -0.0409881 0.71977 0.000446822 -0.0578923 0.71979 0.00042778 -0.0305269 0.719779 0.000446763 -0.0578827 0.719783 0.000447616 -0.0494207 0.719755 0.000446887 -0.0579019 0.719797 0.000445612 -0.0305155 0.719785 0.0004552 -0.0409567 0.719777 0.00044666 -0.0578635 0.719768 0.000467298 -0.0748085 0.771121 0.000484303 -0.085406 0.771109 0.00048784 -0.0716494 0.771115 0.000497778 -0.0854184 0.771111 0.000481071 -0.0663816 0.771114 0.000476091 -0.0748816 0.771109 0.000474216 -0.0441233 0.771097 0.000464237 -0.0408854 0.771099 0.000481065 -0.057893 0.771115 0.000464301 -0.0303603 0.771107 0.000481015 -0.0578834 0.771111 0.000480881 -0.0493695 0.771087 0.00048112 -0.0579027 0.771121 0.000477657 -0.0303488 0.771114 0.000485788 -0.0408538 0.771108 0.000480926 -0.057864 0.771097 0.000497955 -0.0749126 0.822714 0.000520656 -0.0855287 0.822703 0.000521725 -0.0717113 0.822707 0.00053022 -0.0855411 0.822707 0.000516363 -0.06642 0.82271 0.000513722 -0.0749576 0.822703 0.000509169 -0.0440625 0.822693 0.00050176 -0.0408104 0.822696 0.000515478 -0.0578936 0.822707 0.000500695 -0.0302387 0.822703 0.000515436 -0.0578839 0.822707 0.000514444 -0.0493321 0.822685 0.000515522 -0.0579033 0.822713 0.000510159 -0.0302271 0.82271 0.000517023 -0.0407788 0.822706 0.000515361 -0.0578645 0.822693 0.000529247 -0.0749887 0.874495 0.000556822 -0.0856128 0.874487 0.000555815 -0.0717537 0.874489 0.000563095 -0.0856251 0.874491 0.000551637 -0.0664463 0.874494 0.000550964 -0.0750096 0.874487 0.000544156 -0.0440209 0.874477 0.000538906 -0.0407592 0.87448 0.00055001 -0.057894 0.874489 0.000536893 -0.0301555 0.874487 0.000549976 -0.0578843 0.874491 0.000548265 -0.0493066 0.874472 0.000550045 -0.0579038 0.874495 0.000543087 -0.0301438 0.874494 0.000548888 -0.0407275 0.874493 0.000549916 -0.0578649 0.874478 0.000561155 -0.0750409 0.9264 0.000592739 -0.085665 0.926393 0.000590073 -0.0717802 0.926394 0.000596383 -0.0856773 0.926398 0.000586842 -0.0664628 0.926402 0.000587742 -0.075042 0.926393 0.000579131 -0.0439951 0.926385 0.000575602 -0.0407275 0.926388 0.00058462 -0.0578944 0.926393 0.000572834 -0.030104 0.926394 0.000584595 -0.0578847 0.926398 0.000582309 -0.0492907 0.926381 0.000584646 -0.0579041 0.9264 0.000576419 -0.0300923 0.926402 0.000581372 -0.0406958 0.926402 0.000584549 -0.0578652 0.926385 0.000593668 -0.0750733 0.978375 0.000628354 -0.0856927 0.97837 0.000624472 -0.0717944 0.978369 0.000630072 -0.085705 0.978375 0.000621935 -0.0664717 0.978379 0.000623988 -0.0750591 0.97837 0.000614054 -0.0439814 0.978362 0.000611782 -0.0407107 0.978365 0.000619275 -0.0578946 0.978369 0.000608464 -0.0300769 0.978371 0.000619258 -0.0578849 0.978375 0.000616555 -0.0492823 0.978359 0.000619292 -0.0579044 0.978375 0.000610141 -0.030065 0.978379 0.000614476 -0.0406791 0.97838 0.000619227 -0.0578654 0.978362 0.000626788 -0.0750906 1.03038 0.000663627 -0.0857037 1.03038 0.00065899 -0.0718002 1.03038 0.00066415 -0.0857159 1.03038 0.000656889 -0.0664753 1.03039 0.000659656 -0.0750659 1.03038 0.000648897 -0.0439759 1.03037 0.000647396 -0.0407042 1.03037 0.000653949 -0.0578948 1.03038 0.000643742 -0.0300663 1.03038 0.000653941 -0.057885 1.03038 0.000650982 -0.049279 1.03037 0.000653957 -0.0579045 1.03038 0.000644246 -0.0300543 1.03039 0.000648203 -0.0406726 1.03039 0.000653927 -0.0578655 1.03037 0.000660511 -0.0750974 1.0824 0.000698513 -0.0857061 1.08239 0.000693624 -0.0718016 1.08239 0.000698637 -0.0857182 1.0824 0.000691667 -0.0664762 1.0824 0.000694673 -0.0750674 1.08239 0.000683637 -0.0439746 1.08239 0.000682391 -0.0407028 1.08239 0.000688632 -0.0578948 1.08239 0.000678626 -0.030064 1.0824 0.00068863 -0.0578851 1.0824 0.000685588 -0.0492782 1.08239 0.000688635 -0.0579046 1.0824 0.000678743 -0.030052 1.0824 0.000682577 -0.0406712 1.08241 0.000688624 -0.0578656 1.08239 0.000694877 -0.0750989 0.116765 -1.12633e-05 -0.0591448 0.122735 5.76072e-05 -0.0516902 0.116751 9.53326e-05 -0.0591644 0.124999 2.32591e-05 -0.0488275 0.121313 -3.60831e-05 -0.0533511 0.134567 2.42121e-05 -0.0369367 0.135955 -5.58153e-05 -0.0351984 0.128641 3.21435e-05 -0.0442682 0.140545 -2.0903e-05 -0.0296533 0.128658 4.19621e-05 -0.0442787 0.132308 7.20511e-05 -0.0397222 0.128598 3.21677e-05 -0.0442328 0.140541 0.000100734 -0.0296388 0.135972 0.000142492 -0.0351762 0.128623 5.38846e-05 -0.0442057 0.121299 0.000119412 -0.0533747 0.117159 1.51655e-05 -0.0101807 0.119142 -1.5537e-05 -0.00971347 0.125857 -1.66927e-05 -0.00829172 0.108444 9.90324e-06 -0.0120304 0.11381 -3.06877e-06 -0.0108869 0.125876 5.24849e-05 -0.00828586 0.119159 4.58694e-05 -0.00970606 0.166921 -3.43992e-05 0.0779454 0.166895 -7.63361e-05 0.0679213 0.166914 -0.000111693 0.0779455 0.205495 -4.65197e-05 0.0789691 0.205426 -0.000102729 0.0684128 0.205489 -0.000144494 0.0789805 0.166883 -5.22448e-05 0.0640742 0.205407 -6.52767e-05 0.0643776 0.166851 -2.55303e-06 0.0702696 0.205408 -1.13786e-05 0.0709007 0.166928 -4.07804e-05 0.0478582 0.166899 2.75561e-05 0.0454943 0.16687 -5.39724e-05 0.0578768 0.205418 -6.47708e-05 0.047318 0.205374 8.05154e-07 0.0448339 0.205378 -8.3997e-05 0.0578712 0.167014 3.17004e-06 0.0378684 0.205467 -2.33715e-05 0.0367621 0.166896 -6.20497e-05 0.0578777 0.205404 -8.34973e-05 0.0578637 0.166906 -8.50863e-05 0.0516707 0.205401 -0.000101238 0.0513408 0.166808 -5.77294e-05 0.0578759 0.205321 -8.27136e-05 0.0578801 0.167017 -0.000100666 0.0378602 0.205474 -0.000120298 0.0367556 0.166916 -0.000139404 0.0454752 0.205392 -0.00015614 0.0448129 0.166835 -6.82532e-05 0.0578509 0.205348 -8.41134e-05 0.0578545 0.166834 -0.000133093 0.0702893 0.20539 -0.000167648 0.0709201 0.245888 -7.53785e-05 0.0799452 0.245834 -0.000124296 0.0689115 0.245882 -0.00016179 0.0799536 0.245818 -9.08543e-05 0.0646878 0.245811 -4.24926e-05 0.0715061 0.245834 -8.93443e-05 0.0468348 0.245796 -3.1482e-05 0.0442346 0.245793 -0.000106995 0.0578777 0.245885 -5.1966e-05 0.0357927 0.245817 -0.000106746 0.0578711 0.245818 -0.000122137 0.0510436 0.24574 -0.000107578 0.0578839 0.245891 -0.000137569 0.0357854 0.245814 -0.000169795 0.0442125 0.245766 -0.000106069 0.0578576 0.245793 -0.000183245 0.0715272 0.288031 -0.000103303 0.0808314 0.287979 -0.000147093 0.069353 0.288024 -0.000181726 0.080841 0.287966 -0.000116828 0.0649606 0.287962 -7.34627e-05 0.0720536 0.287979 -0.000114368 0.0463943 0.287943 -6.13823e-05 0.0436905 0.287942 -0.000130832 0.0578784 0.288024 -7.97845e-05 0.0349116 0.287965 -0.000130716 0.0578716 0.287966 -0.000144479 0.0507713 0.287894 -0.00013089 0.0578853 0.28803 -0.000157997 0.034904 0.287962 -0.000187765 0.0436677 0.28792 -0.000130605 0.0578578 0.287944 -0.000200303 0.0720752 0.331741 -0.000132126 0.0816287 0.331694 -0.000170854 0.0697531 0.331734 -0.000202455 0.0816383 0.331683 -0.000143375 0.0652083 0.33168 -0.000104815 0.0725467 0.331694 -0.000140305 0.0459977 0.331661 -9.27265e-05 0.0432002 0.33166 -0.000155674 0.0578802 0.331734 -0.000108736 0.0341167 0.331681 -0.000155542 0.0578731 0.331682 -0.000167509 0.0505266 0.331616 -0.000155843 0.0578874 0.33174 -0.00017876 0.0341088 0.33168 -0.000205879 0.0431767 0.331642 -0.000155313 0.057859 0.331661 -0.000218816 0.0725691 0.376858 -0.000161531 0.0823413 0.376817 -0.000195335 0.0701102 0.376852 -0.00022408 0.0823511 0.376807 -0.000170686 0.0654293 0.376805 -0.000136783 0.0729873 0.376816 -0.00016693 0.0456434 0.376786 -0.000124475 0.0427623 0.376786 -0.000181227 0.0578818 0.376851 -0.000138232 0.033407 0.376805 -0.000181105 0.0578746 0.376807 -0.000191348 0.050308 0.376746 -0.000181359 0.0578891 0.376858 -0.000200502 0.0333988 0.376805 -0.000225088 0.0427382 0.376772 -0.000180915 0.05786 0.376787 -0.000238117 0.0730104 0.423228 -0.000191463 0.0829716 0.42319 -0.000220531 0.0704262 0.423221 -0.000246496 0.0829817 0.423182 -0.00019857 0.065625 0.423181 -0.000169161 0.0733772 0.42319 -0.000194175 0.0453301 0.423162 -0.000156672 0.042375 0.423163 -0.000207436 0.0578833 0.423221 -0.000168249 0.0327793 0.42318 -0.000207325 0.0578758 0.423182 -0.000215915 0.0501147 0.423127 -0.000207563 0.0578908 0.423227 -0.000223025 0.0327709 0.423181 -0.00024517 0.0423504 0.423152 -0.000207141 0.0578609 0.423163 -0.000258341 0.0734008 0.470698 -0.000221814 0.0835231 0.470664 -0.000246345 0.0707028 0.470691 -0.000269657 0.0835332 0.470658 -0.000226968 0.0657962 0.470658 -0.000201859 0.0737182 0.470664 -0.000221956 0.045056 0.470639 -0.00018919 0.0420363 0.47064 -0.000234228 0.0578847 0.47069 -0.000198682 0.0322302 0.470656 -0.000234125 0.057877 0.470658 -0.00024113 0.0499456 0.470608 -0.000234343 0.0578923 0.470697 -0.000246288 0.0322216 0.470658 -0.000266097 0.0420112 0.470633 -0.000233955 0.0578618 0.470639 -0.000279391 0.0737424 0.519124 -0.000252494 0.0839992 0.519095 -0.000272714 0.0709416 0.519117 -0.000293502 0.0840095 0.519091 -0.000255791 0.065944 0.519091 -0.000234768 0.0740127 0.519095 -0.000250193 0.0448195 0.519072 -0.00022193 0.041744 0.519073 -0.000261523 0.0578859 0.519117 -0.000229441 0.0317563 0.519088 -0.000261429 0.0578781 0.519091 -0.000266929 0.0497997 0.519045 -0.000261628 0.0578936 0.519124 -0.000270231 0.0317475 0.519091 -0.000287819 0.0417185 0.51907 -0.000261272 0.0578627 0.519072 -0.000301232 0.0740373 0.56837 -0.000283412 0.0844041 0.568345 -0.000299568 0.0711447 0.568363 -0.000317979 0.0844144 0.568342 -0.000284959 0.0660698 0.568343 -0.000267789 0.0742632 0.568345 -0.000278808 0.0446185 0.568324 -0.000254788 0.0414956 0.568326 -0.000289252 0.057887 0.568363 -0.000260432 0.0313535 0.568339 -0.000289166 0.0578791 0.568342 -0.000293247 0.0496758 0.568301 -0.000289346 0.0578948 0.56837 -0.0002948 0.0313445 0.568343 -0.000310296 0.0414697 0.568326 -0.000289022 0.0578634 0.568325 -0.000323819 0.0742881 0.618307 -0.000314484 0.084742 0.618285 -0.000326847 0.0713143 0.6183 -0.000343038 0.0847525 0.618284 -0.000314397 0.0661749 0.618286 -0.000300823 0.0744722 0.618285 -0.00030773 0.0444507 0.618267 -0.000287668 0.0412883 0.618269 -0.000317345 0.057888 0.6183 -0.000291571 0.0310174 0.618281 -0.000317268 0.0578801 0.618284 -0.000320025 0.0495723 0.618247 -0.000317428 0.0578959 0.618307 -0.000319946 0.0310083 0.618286 -0.00033349 0.0412621 0.618272 -0.000317138 0.0578642 0.618267 -0.000347115 0.0744976 0.668813 -0.000345626 0.085018 0.668795 -0.000354491 0.0714529 0.668806 -0.000368635 0.0850285 0.668795 -0.000344033 0.0662608 0.668797 -0.000333775 0.074643 0.668794 -0.000336889 0.0443138 0.668778 -0.000320477 0.0411191 0.668781 -0.00034574 0.0578889 0.668806 -0.000322774 0.0307432 0.668791 -0.000345672 0.0578809 0.668795 -0.000347209 0.049488 0.668762 -0.000345813 0.0578969 0.668813 -0.000345625 0.0307339 0.668797 -0.000357369 0.0410928 0.668787 -0.000345554 0.0578648 0.668779 -0.000371085 0.0746686 0.719779 -0.000376761 0.0852371 0.719763 -0.000382447 0.071563 0.719772 -0.000394731 0.0852476 0.719765 -0.0003738 0.0663291 0.719768 -0.000366555 0.0747785 0.719763 -0.000366221 0.0442052 0.719748 -0.000353125 0.040985 0.719751 -0.000374377 0.0578897 0.719771 -0.000353964 0.0305256 0.719761 -0.000374318 0.0578816 0.719765 -0.000374747 0.049421 0.719735 -0.00037444 0.0578978 0.719778 -0.000371795 0.0305161 0.719767 -0.000381906 0.0409585 0.71976 -0.000374214 0.0578654 0.719749 -0.000395702 0.0748044 0.771102 -0.000407817 0.0854049 0.771088 -0.000410667 0.0716474 0.771095 -0.000421292 0.0854155 0.771091 -0.000403635 0.0663814 0.771095 -0.000399079 0.0748824 0.771088 -0.000395669 0.044122 0.771076 -0.000385528 0.0408823 0.771079 -0.000403204 0.0578903 0.771094 -0.000385068 0.030359 0.771087 -0.000403154 0.0578822 0.771091 -0.000402596 0.0493698 0.771065 -0.000403258 0.0578985 0.771102 -0.000398424 0.0303494 0.771095 -0.000407078 0.0408557 0.771089 -0.000403064 0.0578659 0.771076 -0.000420943 0.0749085 0.822692 -0.000438727 0.0855277 0.822681 -0.000439109 0.0717092 0.822685 -0.00044829 0.0855382 0.822685 -0.000433484 0.0664198 0.822689 -0.000431267 0.0749584 0.822681 -0.000425179 0.0440613 0.82267 -0.000417607 0.0408073 0.822673 -0.000432174 0.0578909 0.822685 -0.000416018 0.0302374 0.822681 -0.000432132 0.0578827 0.822685 -0.000430716 0.0493325 0.822662 -0.000432218 0.0578991 0.822692 -0.000425482 0.0302277 0.822689 -0.00043287 0.0407806 0.822686 -0.000432056 0.0578664 0.82267 -0.000446791 0.0749846 0.874472 -0.000469429 0.0856117 0.874463 -0.000467736 0.0717517 0.874465 -0.000475703 0.0856222 0.874468 -0.000463295 0.0664462 0.874472 -0.000463046 0.0750104 0.874463 -0.000454704 0.0440197 0.874453 -0.000449291 0.0407561 0.874456 -0.000461243 0.0578914 0.874465 -0.000446754 0.0301543 0.874464 -0.00046121 0.0578832 0.874468 -0.000459074 0.0493069 0.874447 -0.000461278 0.0578995 0.874472 -0.000452948 0.0301445 0.874472 -0.000459272 0.0407294 0.874471 -0.000461149 0.0578668 0.874453 -0.000473237 0.0750367 0.926376 -0.000499872 0.085664 0.926368 -0.000496519 0.0717782 