<VTKFile type="UnstructuredGrid" version="1.0" byte_order="LittleEndian" header_type="UInt64">
  <UnstructuredGrid>
    <Piece NumberOfPoints="791" NumberOfCells="973">
      <PointData>
        <DataArray type="Float32" Name="displacement" NumberOfComponents="3" format="ascii" RangeMin="0" RangeMax="1.0857880577">
          0.091461598873 3.8934500481e-05 0.014711099677 0.099856898189 -2.0513400159e-05 0.013786899857
          0.10309399664 5.8975299908e-05 0.013159899972 0.089910700917 2.9236800856e-06 -2.4095799134e-08
          0.091462403536 -2.8933800422e-05 -0.014710499905 0.10309199989 -4.9188900448e-05 -0.013159500435
          0.099855497479 2.9990700568e-05 -0.01378700044 0.091467298567 -3.2122101402e-05 0.014697199687
          0.09771899879 -0.00012224100647 0.014398800209 0.092907302082 -2.6863099265e-05 0.0090644396842
          0.089926801622 3.1943100112e-06 -2.4987699021e-07 0.097717702389 0.00013192200277 -0.014400999993
          0.091465301812 4.1986899305e-05 -0.014697199687 0.092900298536 3.5691598896e-05 -0.0090648597106
          0.097746603191 0.00012256800255 0.014383699745 0.09290780127 4.6378001571e-05 0.0090651996434
          0.097748197615 -0.00011290299881 -0.014381599613 0.092917397618 -3.7779100239e-05 -0.0090649398044
          0.10840799659 -5.9018901084e-05 0.01206399966 0.0970928967 4.9330501497e-06 1.479070022e-07
          0.10841099918 6.9500798418e-05 -0.012064299546 0.10836599767 -5.8073601394e-05 0.012064900249
          0.1083670035 6.8449997343e-05 -0.012065899558 0.10839000344 -5.5235799664e-05 -0.012069099583
          0.097083702683 4.9856798796e-06 -3.3715398473e-08 0.10839100182 6.5439096943e-05 0.012070399709
          0.088911600411 2.9784700928e-06 -1.1072499717e-07 0.20549699664 6.3102401327e-05 -0.078970201313
          0.20542900264 0.00012002400035 -0.068414598703 0.20549200475 0.00016108200361 -0.078983098269
          0.16692200303 4.6891200327e-05 -0.07794649899 0.16689699888 8.9421002485e-05 -0.067923001945
          0.16691599786 0.00012419000268 -0.077947996557 0.20540900528 8.2834500063e-05 -0.064378000796
          0.16688400507 6.5589003498e-05 -0.064074501395 0.20541000366 2.8502199712e-05 -0.070900298655
          0.16685199738 1.5524099581e-05 -0.070269301534 0.20542100072 8.3420098235e-05 -0.04731919989
          0.20537799597 1.8016200556e-05 -0.04483659938 0.205381006 0.00010197200027 -0.057873498648
          0.16693000495 5.5334599892e-05 -0.047859400511 0.16690200567 -1.2868499653e-05 -0.045496899635
          0.16687199473 6.7789398599e-05 -0.057879198343 0.20546999574 4.2702798964e-05 -0.036763399839
          0.16701599956 1.2081600289e-05 -0.037869598716 0.20540699363 0.00010146499699 -0.057864800096
          0.16689799726 7.5885698607e-05 -0.057878799736 0.20540300012 0.00011962999997 -0.051340799779
          0.16690699756 9.9360397144e-05 -0.051670700312 0.20532500744 0.00010069699783 -0.057883601636
          0.16681100428 7.1545298852e-05 -0.057879399508 0.20547600091 0.00013963099627 -0.036755401641
          0.16701799631 0.00011592399824 -0.037859998643 0.20539399981 0.00017495699285 -0.044811699539
          0.16691599786 0.00015412300127 -0.045474100858 0.20534899831 0.00010209599714 -0.057853300124
          0.16683499515 8.2063597802e-05 -0.057849798352 0.20539399981 0.00018477799313 -0.070923596621
          0.16683599353 0.00014607599587 -0.070292696357 0.24589200318 9.6279800346e-05 -0.079946301877
          0.24583800137 0.0001458839979 -0.068913400173 0.24588599801 0.00018269200518 -0.079956099391
          0.24582099915 0.00011270600226 -0.064688198268 0.2458139956 6.3924700953e-05 -0.071505703032
          0.24583800137 0.0001123080001 -0.046835999936 0.24580100179 5.4609601648e-05 -0.044237300754
          0.24579800665 0.00012927499483 -0.057880099863 0.24588899314 7.5610601925e-05 -0.03579390049
          0.24582199752 0.00012902499293 -0.057872198522 0.24582199752 0.00014484100393 -0.051043599844
          0.24574500322 0.00012986500224 -0.057887598872 0.24589399993 0.00016121599765 -0.035785101354
          0.24581700563 0.00019292799698 -0.044211298227 0.24576899409 0.00012835599773 -0.0578561984
          0.24579900503 0.00020467900322 -0.071530796587 0.28803598881 0.00012868699559 -0.080832399428
          0.28798499703 0.00017316899903 -0.069354899228 0.28802999854 0.00020711300022 -0.080843597651
          0.28797000647 0.00014316699526 -0.064961001277 0.28796699643 9.9378201412e-05 -0.072053097188
          0.28798499703 0.00014181599545 -0.046395499259 0.28795000911 8.899490058e-05 -0.043693199754
          0.28794801235 0.00015759600501 -0.0578809008 0.28802898526 0.00010791399836 -0.034912798554
          0.28797000647 0.00015747899306 -0.057872798294 0.28797000647 0.00017166799807 -0.050771199167
          0.28790101409 0.00015766000433 -0.057888999581 0.28803500533 0.00018612899294 -0.034903600812
          0.28796601295 0.00021538000146 -0.043666299433 0.28792399168 0.00015737500507 -0.057856399566
          0.28795099258 0.0002262229973 -0.072078801692 0.33174699545 0.00016215500364 -0.081629797816
          0.33170101047 0.00020157299878 -0.069755002856 0.33174198866 0.00023248500656 -0.081641003489
          0.33168900013 0.00017435700283 -0.065208598971 0.33168500662 0.00013537499763 -0.072546102107
          0.33170101047 0.00017239700537 -0.045998901129 0.33166900277 0.00012498299475 -0.043202999979
          0.33166798949 0.00018708300195 -0.057882700115 0.33174100518 0.00014151100186 -0.034117899835
          0.33168798685 0.00018694899336 -0.057874299586 0.33168900013 0.00019934099691 -0.050526499748
          0.33162501454 0.0001872569992 -0.057891201228 0.33174699545 0.00021153599664 -0.034108400345
          0.33168500662 0.00023813800362 -0.043175298721 0.33164700866 0.00018672700389 -0.057857498527
          0.33166900277 0.00024937800481 -0.072572797537 0.37686601281 0.00019634599448 -0.082342296839
          0.37682500482 0.00023083999986 -0.070112198591 0.37686100602 0.00025889699464 -0.082353897393
          0.37681400776 0.00020645500626 -0.065429598093 0.376812011 0.00017212799867 -0.072986796498
          0.37682500482 0.00020380799833 -0.045644599944 0.37679600716 0.00016151700402 -0.042765200138
          0.37679499388 0.00021742099489 -0.057884398848 0.37685999274 0.00017579300038 -0.033408198506
          0.37681299448 0.0002172980021 -0.057875700295 0.37681400776 0.0002279659966 -0.050307799131
          0.37675601244 0.00021755800117 -0.057893000543 0.37686601281 0.00023806499667 -0.033398400992
          0.376812011 0.00026213299134 -0.042736701667 0.37677800655 0.00021711399313 -0.057858400047
          0.37679600716 0.00027346398565 -0.073014199734 0.42323699594 0.00023119100661 -0.082972697914
          0.42320001125 0.00026094898931 -0.070428200066 0.42323100567 0.0002862259862 -0.082984402776
          0.42319101095 0.00023925100686 -0.065625198185 0.42318999767 0.00020941899857 -0.073376499116
          0.42320001125 0.00023596599931 -0.045331299305 0.42317301035 0.00019862700719 -0.042378000915
          0.42317301035 0.00024854400544 -0.057885799557 0.42323100567 0.00021072399977 -0.032780498266
          0.42318999767 0.00024843000574 -0.057877000421 0.42319101095 0.00025744599407 -0.050114501268
          0.42313799262 0.00024867401225 -0.057894699275 0.42323601246 0.00026550100301 -0.032770399004
          0.4231890142 0.00028712800122 -0.042348798364 0.42315998673 0.00024825200671 -0.057859301567
          0.42317301035 0.00029860099312 -0.073404699564 0.47070801258 0.00026656698901 -0.083524100482
          0.47067499161 0.00029178799014 -0.070704698563 0.47070199251 0.00031441199826 -0.083536103368
          0.47066900134 0.00027267399128 -0.065796397626 0.47066798806 0.00024714099709 -0.073717601597
          0.47067499161 0.00026877201162 -0.045057199895 0.47065100074 0.00023617000261 -0.042039301246
          0.47065201402 0.00028035999276 -0.057887200266 0.47070199251 0.00024618199677 -0.03223149851
          0.47066700459 0.00028025498614 -0.057878199965 0.47066900134 0.00028768499033 -0.049945399165
          0.47062000632 0.00028047800879 -0.05789630115 0.47070801258 0.0002937889949 -0.032221101224
          0.47066798806 0.00031307799509 -0.042009599507 0.47064301372 0.00028008999652 -0.057860098779
          0.47065201402 0.00032467499841 -0.073746301234 0.5191360116 0.00030236900784 -0.084000200033
          0.51910698414 0.00032327801455 -0.070943601429 0.51912999153 0.00034337901161 -0.084012299776
          0.51910299063 0.00030661799246 -0.065944299102 0.51910197735 0.00028517199098 -0.074011996388
          0.51910698414 0.00030213000719 -0.044820699841 0.5190860033 0.00027403098647 -0.041747000068
          0.51908701658 0.00031277601374 -0.057888500392 0.51912999153 0.00028206201387 -0.031757600605
          0.5191000104 0.00031268098974 -0.057879298925 0.51910299063 0.00031860498711 -0.049799498171
          0.5190590024 0.00031288398895 -0.057897701859 0.5191360116 0.00032285400084 -0.031746998429
          0.51910197735 0.00033992200042 -0.04171679914 0.51908099651 0.0003125279909 -0.057860899717
          0.5190860033 0.00035163800931 -0.074041299522 0.56838399172 0.00033849300235 -0.084405101836
          0.56835901737 0.00035533800838 -0.071146696806 0.56837797165 0.00037306098966 -0.084417298436
          0.56835597754 0.00034099101322 -0.066070102155 0.56835597754 0.00032339800964 -0.074262402952
          0.56835901737 0.00033595098648 -0.044619701803 0.56834000349 0.00031209399458 -0.041498601437
          0.56834101677 0.00034570900607 -0.057889599353 0.56837701797 0.00031825900078 -0.031354799867
          0.5683529973 0.00034562300425 -0.057880301028 0.56835597754 0.00035012798617 -0.049675498158
          0.5683169961 0.00034580600914 -0.057898901403 0.56838399172 0.0003526280052 -0.03134400025
          0.56835597754 0.00036760300281 -0.041467998177 0.56833899021 0.00034548199619 -0.057861600071
          0.56834000349 0.00037942899507 -0.074292197824 0.61832201481 0.0003748399904 -0.084743097425
          0.61830002069 0.00038789201062 -0.071316301823 0.61831599474 0.00040339500993 -0.084755398333
          0.61829900742 0.00037570399581 -0.066175103188 0.61830002069 0.00036170601379 -0.074471503496
          0.61830002069 0.00037014699774 -0.044451899827 0.61828297377 0.00035024899989 -0.041291300207
          0.61828500032 0.00037907701335 -0.057890601456 0.61831599474 0.00035467400448 -0.031018700451
          0.61829602718 0.00037900000461 -0.057881198823 0.61829900742 0.00038218201371 -0.049571998417
          0.61826401949 0.00037916298606 -0.057900100946 0.61832201481 0.00038305000635 -0.031007699668
          0.61830002069 0.00039607199142 -0.041260398924 0.6182860136 0.00037887200597 -0.057862300426
          0.61828398705 0.00040799900307 -0.074501596391 0.66882997751 0.0004113150062 -0.085018999875
          0.66881197691 0.00042086900794 -0.071454897523 0.66882401705 0.00043432498933 -0.085031397641
          0.66881197691 0.00041067300481 -0.066261000931 0.66881299019 0.00039999099681 -0.074642196298
          0.66881197691 0.00040464001358 -0.044314999133 0.66879701614 0.00038839099579 -0.04112220183
          0.66879802942 0.00041280500591 -0.057891499251 0.66882401705 0.00039120999281 -0.030744399875
          0.66880899668 0.00041273699026 -0.057881999761 0.66881197691 0.00041469800635 -0.04948759824
          0.66878098249 0.00041288000648 -0.057901099324 0.66882997751 0.00041406101082 -0.030733300373
          0.66881299019 0.00042528400081 -0.041090998799 0.66880202293 0.00041262101149 -0.05786300078
          0.66879701614 0.00043730199104 -0.074672698975 0.71979701519 0.0004478310002 -0.085238099098
          0.71978199482 0.00045420401148 -0.071565002203 0.71979099512 0.00046580098569 -0.085250496864
          0.7197830081 0.00044582001283 -0.066329203546 0.71978497505 0.00043815100798 -0.074777700007
          0.71978098154 0.00043935200665 -0.044206399471 0.71976798773 0.00042641800246 -0.04098809883
          0.71977001429 0.0004468219995 -0.057892300189 0.71978998184 0.00042778000352 -0.030526900664
          0.71977901459 0.00044676300604 -0.057882700115 0.7197830081 0.00044761601021 -0.049420699477
          0.71975499392 0.00044688698836 -0.057901900262 0.71979701519 0.00044561200775 -0.030515499413
          0.71978497505 0.00045520000276 -0.040956698358 0.71977698803 0.00044666000758 -0.057863499969
          0.71976798773 0.00046729799942 -0.074808500707 0.77112102509 0.00048430298921 -0.085405997932
          0.77110898495 0.00048784000683 -0.07164940238 0.77111500502 0.0004977780045 -0.085418403149
          0.77111101151 0.00048107100883 -0.066381603479 0.77111399174 0.0004760909942 -0.074881598353
          0.77110898495 0.00047421600902 -0.04412329942 0.77109700441 0.00046423700405 -0.040885400027
          0.77109897137 0.00048106501345 -0.057893000543 0.77111500502 0.00046430100338 -0.030360300094
          0.77110701799 0.00048101501307 -0.05788340047 0.77111101151 0.00048088098993 -0.049369499087
          0.77108699083 0.00048111999058 -0.057902701199 0.77112102509 0.00047765701311 -0.030348800123
          0.77111399174 0.00048578801216 -0.040853798389 0.77110797167 0.00048092601355 -0.057863999158
          0.77109700441 0.000497955014 -0.074912600219 0.82271397114 0.00052065600175 -0.085528701544
          0.82270300388 0.00052172498545 -0.071711301804 0.82270699739 0.0005302199861 -0.08554109931
          0.82270699739 0.00051636301214 -0.066419996321 0.82270997763 0.00051372201415 -0.074957601726
          0.82270300388 0.00050916901091 -0.044062498957 0.8226929903 0.00050175999058 -0.040810398757
          0.82269597054 0.00051547802286 -0.057893600315 0.82270699739 0.00050069502322 -0.030238699168
          0.82270300388 0.00051543599693 -0.057883899659 0.82270699739 0.00051444402197 -0.049332100898
          0.82268500328 0.00051552202785 -0.057903300971 0.82271301746 0.00051015900681 -0.030227100477
          0.82270997763 0.00051702302881 -0.040778800845 0.82270598412 0.00051536102546 -0.057864498347
          0.8226929903 0.00052924698684 -0.074988700449 0.87449502945 0.00055682199309 -0.085612803698
          0.87448698282 0.00055581500055 -0.071753703058 0.87448900938 0.0005630949745 -0.085625097156
          0.87449097633 0.00055163697107 -0.066446296871 0.87449401617 0.00055096397409 -0.075009599328
          0.87448698282 0.00054415600607 -0.04402089864 0.87447702885 0.0005389060243 -0.040759198368
          0.87448000908 0.00055001000874 -0.057893998921 0.87448900938 0.00053689302877 -0.030155500397
          0.87448698282 0.00054997601546 -0.057884298265 0.87449097633 0.00054826500127 -0.049306601286
          0.87447202206 0.00055004499154 -0.05790380016 0.87449502945 0.00054308702238 -0.03014379926
          0.87449401617 0.00054888799787 -0.040727499872 0.87449300289 0.00054991600337 -0.057864900678
          0.87447798252 0.00056115497136 -0.075040899217 0.92640000582 0.00059273897205 -0.085665002465
          0.92639297247 0.00059007300297 -0.071780197322 0.92639398575 0.00059638300445 -0.085677303374
          0.92639797926 0.00058684201213 -0.066462799907 0.92640197277 0.00058774201898 -0.075042001903
          0.92639297247 0.00057913101045 -0.043995101005 0.92638498545 0.00057560199639 -0.040727499872
          0.92638802528 0.00058461999288 -0.057894401252 0.92639297247 0.00057283398928 -0.030104000121
          0.92639398575 0.00058459502179 -0.057884700596 0.92639797926 0.00058230897412 -0.049290701747
          0.92638099194 0.0005846460117 -0.057904098183 0.92640000582 0.00057641899912 -0.030092300847
          0.92640197277 0.0005813720054 -0.040695801377 0.92640197277 0.00058454897953 -0.057865198702
          0.92638498545 0.00059366802452 -0.075073301792 0.97837501764 0.00062835402787 -0.085692703724
          0.97837001085 0.00062447198434 -0.071794398129 0.97836899757 0.00063007202698 -0.085704997182
          0.97837501764 0.00062193500344 -0.066471703351 0.97837901115 0.00062398798764 -0.075059100986
          0.97837001085 0.00061405397719 -0.043981399387 0.97836202383 0.00061178201577 -0.040710698813
          0.97836500406 0.00061927497154 -0.057894598693 0.97836899757 0.00060846400447 -0.030076900497
          0.97837102413 0.0006192579749 -0.057884901762 0.97837501764 0.00061655498575 -0.049282301217
          0.97835898399 0.00061929202639 -0.057904399931 0.97837501764 0.00061014102539 -0.030065000057
          0.97837901115 0.00061447598273 -0.040679100901 0.97838002443 0.00061922700843 -0.057865399867
          0.97836202383 0.00062678800896 -0.07509060204 1.0303800106 0.00066362699727 -0.085703700781
          1.0303800106 0.00065899000037 -0.071800202131 1.0303800106 0.0006641499931 -0.085715897381
          1.0303800106 0.00065688899485 -0.066475301981 1.0303900242 0.00065965601243 -0.075065903366
          1.0303800106 0.0006488970248 -0.043975900859 1.030369997 0.00064739602385 -0.040704198182
          1.030369997 0.00065394898411 -0.057894799858 1.0303800106 0.00064374197973 -0.030066300184
          1.0303800106 0.00065394100966 -0.05788499862 1.0303800106 0.00065098202322 -0.04927900061
          1.030369997 0.00065395701677 -0.057904500514 1.0303800106 0.00064424599987 -0.030054299161
          1.0303900242 0.00064820301486 -0.040672600269 1.0303900242 0.00065392698161 -0.05786550045
          1.030369997 0.00066051102476 -0.07509739697 1.0823999643 0.00069851300213 -0.085706099868
          1.0823899508 0.00069362402428 -0.07180160284 1.0823899508 0.00069863698445 -0.085718199611
          1.0823999643 0.00069166702451 -0.066476203501 1.0823999643 0.00069467298454 -0.075067400932
          1.0823899508 0.00068363698665 -0.043974600732 1.0823899508 0.00068239099346 -0.040702801198
          1.0823899508 0.00068863201886 -0.057894799858 1.0823899508 0.00067862600554 -0.030063999817
          1.0823999643 0.0006886299816 -0.057885099202 1.0823999643 0.00068558799103 -0.049278199673
          1.0823899508 0.00068863498745 -0.057904601097 1.0823999643 0.00067874300294 -0.030052000657
          1.0823999643 0.00068257702515 -0.04067119956 1.0824099779 0.00068862398621 -0.057865601033
          1.0823899508 0.00069487700239 -0.075098901987 0.11676499993 -1.1263299712e-05 -0.059144798666
          0.12273500115 5.7607201597e-05 -0.051690198481 0.11675100029 9.5332601632e-05 -0.059164401144
          0.12499900162 2.325909918e-05 -0.048827499151 0.12131299824 -3.6083099985e-05 -0.053351100534
          0.13456700742 2.421210047e-05 -0.036936700344 0.13595500588 -5.5815300584e-05 -0.03519840166
          0.12864099443 3.2143499993e-05 -0.044268198311 0.14054499567 -2.0903000404e-05 -0.0296532996
          0.12865799665 4.1962099203e-05 -0.044278699905 0.13230800629 7.2051101597e-05 -0.039722200483
          0.12859800458 3.2167699828e-05 -0.044232800603 0.14054100215 0.00010073400335 -0.02963880077
          0.13597199321 0.00014249200467 -0.03517619893 0.12862299383 5.3884599765e-05 -0.044205699116
          0.12129899859 0.00011941199773 -0.053374700248 0.11715900153 1.5165500372e-05 -0.010180699639
          0.11914200336 -1.5536999854e-05 -0.0097134700045 0.12585699558 -1.6692700228e-05 -0.0082917204127
          0.1084439978 9.903240425e-06 -0.012030400336 0.1138100028 -3.0687699564e-06 -0.010886900127
          0.12587599456 5.2484898333e-05 -0.0082858595997 0.11915899813 4.586940122e-05 -0.0097060604021
          0.16692100465 -3.4399199649e-05 0.077945396304 0.16689500213 -7.6336102211e-05 0.067921303213
          0.16691400111 -0.00011169299978 0.077945500612 0.20549499989 -4.6519700845e-05 0.078969098628
          0.20542599261 -0.00010272899817 0.068412803113 0.20548899472 -0.00014449399896 0.078980498016
          0.16688300669 -5.2244799008e-05 0.064074203372 0.20540699363 -6.5276697569e-05 0.064377598464
          0.166850999 -2.5530300718e-06 0.070269599557 0.20540800691 -1.1378599993e-05 0.070900700986
          0.1669279933 -4.0780400013e-05 0.047858200967 0.16689899564 2.7556099667e-05 0.045494299382
          0.16686999798 -5.3972398746e-05 0.057876799256 0.20541800559 -6.4770800236e-05 0.047318000346
          0.20537400246 8.0515400214e-07 0.044833898544 0.20537799597 -8.3997001639e-05 0.057871200144
          0.1670140028 3.1700399177e-06 0.037868399173 0.2054670006 -2.3371499992e-05 0.036762099713
          0.1668960005 -6.2049701228e-05 0.057877700776 0.20540399849 -8.3497303422e-05 0.057863701135
          0.16690599918 -8.5086299805e-05 0.051670700312 0.20540100336 -0.00010123800166 0.051340799779
          0.16680799425 -5.7729401306e-05 0.057875901461 0.20532099903 -8.2713602751e-05 0.057880099863
          0.16701699793 -0.00010066600225 0.037860199809 0.20547400415 -0.00012029799836 0.036755599082
          0.16691599786 -0.00013940400095 0.045475199819 0.20539200306 -0.00015613999858 0.044812899083
          0.16683499515 -6.8253197242e-05 0.057850901037 0.20534799993 -8.4113402409e-05 0.057854499668
          0.16683399677 -0.00013309299538 0.070289298892 0.2053900063 -0.00016764800239 0.070920102298
          0.24588799477 -7.5378498877e-05 0.079945199192 0.24583399296 -0.00012429599883 0.068911500275
          0.2458820045 -0.00016178999795 0.079953603446 0.24581800401 -9.0854300652e-05 0.064687803388
          0.24581100047 -4.2492600187e-05 0.071506097913 0.24583399296 -8.934429934e-05 0.046834800392
          0.245795995 -3.1481999031e-05 0.044234599918 0.24579299986 -0.00010699500126 0.057877700776
          0.24588499963 -5.1965998864e-05 0.035792700946 0.24581700563 -0.00010674600344 0.057871099561
          0.24581800401 -0.00012213700393 0.051043599844 0.24573999643 -0.00010757800192 0.057883899659
          0.2458910048 -0.00013756900444 0.035785399377 0.2458139956 -0.00016979500651 0.044212501496
          0.24576599896 -0.00010606899741 0.057857599109 0.24579299986 -0.00018324500707 0.071527197957
          0.28803101182 -0.00010330299847 0.08083140105 0.28797900677 -0.00014709300012 0.06935299933
          0.28802400827 -0.00018172600539 0.080840997398 0.28796601295 -0.00011682799959 0.064960598946
          0.28796198964 -7.3462702858e-05 0.072053596377 0.28797900677 -0.00011436799832 0.046394299716
          0.28794300556 -6.1382299464e-05 0.043690498918 0.28794199228 -0.00013083200611 0.05787840113
          0.28802400827 -7.9784498666e-05 0.03491159901 0.28796499968 -0.00013071599824 0.05787159875
          0.28796601295 -0.00014447899594 0.05077129975 0.28789401054 -0.00013088999549 0.057885300368
          0.28802999854 -0.00015799699759 0.034903999418 0.28796198964 -0.00018776500656 0.043667700142
          0.28791999817 -0.00013060499623 0.057857800275 0.28794398904 -0.00020030299493 0.072075203061
          0.33174100518 -0.00013212600606 0.081628702581 0.33169400692 -0.00017085399304 0.069753102958
          0.33173400164 -0.00020245500491 0.081638298929 0.33168300986 -0.00014337500033 0.065208300948
          0.33167999983 -0.00010481500067 0.072546698153 0.33169400692 -0.00014030499733 0.045997701585
          0.33166098595 -9.2726499133e-05 0.043200198561 0.33166000247 -0.0001556740026 0.057880200446
          0.33173400164 -0.00010873599967 0.034116700292 0.33168101311 -0.00015554200218 0.057873100042
          0.33168199658 -0.00016750900249 0.050526600331 0.33161601424 -0.00015584299399 0.057887401432
          0.3317399919 -0.00017876000493 0.034108798951 0.33167999983 -0.0002058789978 0.04317669943
          0.33164200187 -0.00015531299869 0.057858999819 0.33166098595 -0.00021881599969 0.072569102049
          0.37685799599 -0.00016153100296 0.082341298461 0.37681698799 -0.00019533500017 0.070110201836
          0.37685200572 -0.00022407999495 0.082351103425 0.37680700421 -0.00017068600573 0.06542930007
          0.37680500746 -0.00013678299729 0.072987303138 0.37681600451 -0.00016692999634 0.045643400401
          0.37678599358 -0.00012447500194 0.042762301862 0.37678599358 -0.00018122700567 0.057881798595
          0.37685099244 -0.00013823200425 0.033406998962 0.37680500746 -0.00018110500241 0.057874601334
          0.37680700421 -0.00019134799368 0.050308000296 0.37674599886 -0.00018135900609 0.057889100164
          0.37685799599 -0.00020050200692 0.033398799598 0.37680500746 -0.00022508800612 0.042738199234
          0.37677198648 -0.00018091499805 0.057859998196 0.37678700686 -0.00023811700521 0.073010399938
          0.42322799563 -0.00019146299746 0.082971602678 0.42318999767 -0.0002205310011 0.07042620331
          0.42322099209 -0.000246495998 0.082981698215 0.42318201065 -0.00019856999279 0.06562499702
          0.42318099737 -0.00016916099412 0.073377199471 0.42318999767 -0.00019417499425 0.045330099761
          0.42316201329 -0.00015667200205 0.042374998331 0.42316299677 -0.00020743599453 0.057883299887
          0.42322099209 -0.00016824899649 0.032779298723 0.4231800139 -0.00020732500707 0.057875800878
          0.42318201065 -0.00021591500263 0.050114698708 0.42312699556 -0.00020756300364 0.057890798897
          0.42322701216 -0.00022302499565 0.032770898193 0.42318099737 -0.00024516999838 0.042350400239
          0.42315199971 -0.0002071409981 0.057860899717 0.42316299677 -0.00025834099506 0.07340080291
          0.470697999 -0.00022181399981 0.083523102105 0.47066399455 -0.00024634500733 0.070702798665
          0.47069099545 -0.0002696570009 0.083533197641 0.47065800428 -0.00022696799715 0.065796196461
          0.47065800428 -0.00020185900212 0.073718197644 0.47066399455 -0.0002219559974 0.045056000352
          0.4706389904 -0.00018919000286 0.042036298662 0.47064000368 -0.00023422800587 0.057884700596
          0.47069001198 -0.00019868199888 0.032230198383 0.47065600753 -0.00023412499286 0.057877000421
          0.47065800428 -0.00024112999381 0.049945600331 0.47060799599 -0.0002343429951 0.057892300189
          0.47069698572 -0.00024628799292 0.032221600413 0.47065800428 -0.00026609699125 0.042011201382
          0.47063300014 -0.00023395499738 0.057861801237 0.4706389904 -0.00027939100983 0.07374239713
          0.51912397146 -0.00025249400642 0.083999201655 0.5190950036 -0.00027271400904 0.070941597223
          0.51911699772 -0.00029350200202 0.084009498358 0.51909101009 -0.00025579100475 0.065944001079
          0.51909101009 -0.00023476799834 0.074012696743 0.5190950036 -0.00025019299937 0.044819500297
          0.51907199621 -0.00022192999313 0.04174400121 0.51907300949 -0.00026152300416 0.05788590014
          0.51911699772 -0.00022944099328 0.031756300479 0.51908797026 -0.00026142899878 0.057878099382
          0.51909101009 -0.00026692901156 0.049799699336 0.51904499531 -0.00026162801078 0.057893600315
          0.51912397146 -0.00027023098664 0.031747501343 0.51909101009 -0.00028781901347 0.041718501598
          0.51907002926 -0.00026127201272 0.057862699032 0.51907199621 -0.0003012320085 0.07403729856
          0.56836998463 -0.00028341199504 0.084404103458 0.56834501028 -0.00029956799699 0.07114470005
          0.56836301088 -0.00031797899283 0.08441440016 0.56834197044 -0.00028495900915 0.066069796681
          0.56834298372 -0.00026778900065 0.074263200164 0.56834501028 -0.00027880800189 0.044618498534
          0.56832402945 -0.00025478799944 0.041495598853 0.5683259964 -0.00028925199877 0.0578869991
          0.56836301088 -0.00026043198886 0.03135349974 0.56833899021 -0.00028916599695 0.057879101485
          0.56834197044 -0.00029324699426 0.049675799906 0.56830102205 -0.00028934600414 0.057894799858
          0.56836998463 -0.00029480000376 0.031344499439 0.56834298372 -0.00031029598904 0.041469700634
          0.5683259964 -0.00028902199119 0.057863399386 0.56832498312 -0.00032381899655 0.074288100004
          0.61830699444 -0.00031448400114 0.084742002189 0.61828500032 -0.00032684698817 0.071314297616
          0.61830002069 -0.00034303800203 0.084752500057 0.61828398705 -0.00031439700979 0.066174902022
          0.6182860136 -0.00030082301237 0.0744721964 0.61828500032 -0.00030772999162 0.044450700283
          0.61826699972 -0.00028766799369 0.041288301349 0.61826902628 -0.00031734499498 0.057888001204
          0.61830002069 -0.00029157099198 0.031017400324 0.61828100681 -0.00031726798625 0.057880099863
          0.61828398705 -0.00032002499211 0.049572300166 0.61824697256 -0.00031742799911 0.057895898819
          0.61830699444 -0.00031994600431 0.03100829944 0.6182860136 -0.00033348999568 0.041262101382
          0.61827200651 -0.00031713800854 0.057864200324 0.61826699972 -0.00034711501212 0.07449760288
          0.66881299019 -0.00034562600194 0.085018001497 0.66879498959 -0.0003544909996 0.071452900767
          0.66880601645 -0.00036863499554 0.085028499365 0.66879498959 -0.00034403300378 0.066260799766
          0.66879701614 -0.00033377500949 0.07464300096 0.66879397631 -0.00033688900294 0.04431379959
          0.66877800226 -0.0003204770037 0.041119098663 0.66878098249 -0.00034574000165 0.057888898998
          0.66880601645 -0.00032277399441 0.030743200332 0.66879099607 -0.000345671986 0.0578809008
          0.66879498959 -0.00034720898839 0.049488000572 0.66876202822 -0.00034581299406 0.057896900922
          0.66881299019 -0.00034562501241 0.030733900145 0.66879701614 -0.00035736899008 0.041092801839
          0.66878700256 -0.00034555399907 0.057864800096 0.66877901554 -0.00037108501419 0.074668601155
          0.71977901459 -0.00037676098873 0.08523710072 0.71976298094 -0.00038244700409 0.071562997997
          0.71977198124 -0.00039473100333 0.085247598588 0.7197650075 -0.00037379999412 0.066329099238
          0.71976798773 -0.00036655500298 0.074778497219 0.71976298094 -0.00036622100743 0.044205199927
          0.71974802017 -0.00035312501132 0.040984999388 0.7197510004 -0.00037437700666 0.057889699936
          0.71977102757 -0.00035396398744 0.030525600538 0.71976101398 -0.0003743180132 0.057881601155
          0.7197650075 -0.00037474700366 0.049421001226 0.71973502636 -0.00037443998735 0.057897798717