<VTKFile type="UnstructuredGrid" version="1.0" byte_order="LittleEndian" header_type="UInt64">
  <UnstructuredGrid>
    <Piece NumberOfPoints="791" NumberOfCells="973">
      <PointData>
        <DataArray type="Float32" Name="displacement" NumberOfComponents="3" format="ascii" RangeMin="0" RangeMax="1.2252723066">
          0.0030948999338 -0.0089762201533 -0.00022035899747 -0.0020507599693 -0.0086161997169 0.00023228800274
          0.0047955699265 -0.0084286695346 -0.00070195202716 0.003821189981 6.9051502294e-08 6.7458597641e-07
          0.0030922798906 0.0089727900922 0.00022081300267 0.0048016197979 0.0084257302806 0.00070360198151
          -0.0020561499987 0.0086135100573 -0.00023153699294 -0.0034340200946 -0.0089963097125 0.00020197199774
          -0.011036800221 -0.0089553901926 0.0014794500312 -0.0086825098842 -0.0056481799111 0.00031885001226
          -0.0041514202021 1.1243400166e-07 2.6421199095e-07 -0.01103330031 0.0089518800378 -0.0014798600459
          -0.0034361800645 0.0089927902445 -0.00020058400696 -0.008678839542 0.0056468099356 -0.00031747799949
          0.010728100315 -0.0089846197516 -0.0014933299972 0.0083321696147 -0.0056872698478 -0.00040525500663
          0.010724499822 0.0089801801369 0.0014939899556 0.0083191199228 0.0056847902015 0.00040722198901
          -0.0063605802134 -0.0081960000098 0.00097231200198 -0.01097560022 -8.9166201178e-07 1.1015799828e-06
          -0.0063543999568 0.0081938402727 -0.00097103900043 -0.012561200187 -0.0083236796781 0.0018217900069
          -0.012552700005 0.0083207599819 -0.001820949954 0.012207300402 0.0082671996206 0.0018558499869
          0.010585700162 -1.8500900296e-06 1.2484299532e-06 0.012212499976 -0.0082692001015 -0.0018540699966
          -0.00017255899729 -1.6810099979e-08 2.2567100189e-07 0.0024575300049 0.097891196609 0.0054650399834
          -0.001519870013 0.093707501888 -0.0027212400455 -0.0027991300449 0.097885802388 -0.0054562301375
          0.0024425201118 0.06943950057 0.0043971301056 -0.0015199199552 0.065391100943 -0.0021896599792
          -0.0027836998925 0.069424599409 -0.0043843998574 0.0033947399352 0.092146396637 0.0071419300511
          0.0034083400387 0.063856199384 0.0057292501442 0.00684730988 0.094897903502 0.014308599755
          0.0068676001392 0.066515602171 0.011420699768 -0.0016026799567 0.085123598576 -0.0027273099404
          -0.0076846498996 0.084275603294 -0.014308899641 -0.0046639600769 0.089542597532 -0.0088205095381
          -0.0016199899837 0.056839101017 -0.0021334800404 -0.0078049497679 0.056050200015 -0.011180999689
          -0.0046990001574 0.061278700829 -0.0070268898271 -0.0031039300375 0.080701299012 -0.0054718097672
          -0.0031731999479 0.052416998893 -0.0042208298109 -0.00017267800285 0.089464597404 3.9604801714e-06
          -0.0001713429956 0.061193298548 4.2117599151e-06 0.003528309986 0.086841903627 0.0071483799256
          0.0035712399986 0.058575600386 0.0056371600367 -0.0091569200158 0.089768603444 -0.017674699426
          -0.0092287603766 0.061506599188 -0.014007000253 0.0027552400716 0.080709300935 0.0054744998924
          0.0028184799012 0.05242370069 0.0042321798392 0.0073460801505 0.0842743963 0.01431979984
          0.0074720899574 0.056058898568 0.011187599972 0.0088111096993 0.089763201773 0.017678499222
          0.0088908402249 0.061500299722 0.014019999653 -0.0071994899772 0.09489659965 -0.01429389976
          -0.0072180097923 0.066522598267 -0.011424900033 0.0024658099283 0.13244900107 0.0065103298984
          -0.0015297899954 0.12828400731 -0.0032447599806 -0.0028154801112 0.13244199753 -0.0064974399284
          0.0034060499165 0.12672400475 0.0085141696036 0.0068809501827 0.12944899499 0.017035100609
          -0.0016089599812 0.11971800029 -0.0032477800269 -0.0077002700418 0.11886200309 -0.017031099647
          -0.0046844501048 0.12412299961 -0.010514900088 -0.0031080099288 0.11531499773 -0.0065055000596
          -0.00017662500613 0.12404900044 4.0835398067e-06 0.0035342399497 0.12142899632 0.0085132997483
          -0.0091927601025 0.12432599813 -0.021051099524 0.0027505799662 0.1153210029 0.0065075801685
          0.0073530199006 0.11886200309 0.017038000748 0.008839850314 0.12432199717 0.021056499332
          -0.0072398697957 0.12944799662 -0.01702179946 0.002473929897 0.17279100418 0.0074670300819
          -0.0015398600372 0.16860799491 -0.0037208800204 -0.0028363799211 0.17278499901 -0.0074520898052
          0.0034052398987 0.16703799367 0.0097624296322 0.0068949298002 0.16976100206 0.019536800683
          -0.0016109900316 0.16003599763 -0.0037247301079 -0.0076813101768 0.15916499496 -0.019523900002
          -0.0046889800578 0.16443200409 -0.012056300417 -0.0030996201094 0.15564000607 -0.0074587198906
          -0.00018283400277 0.16436600685 4.0494801397e-06 0.0035202999134 0.16174100339 0.0097597902641
          -0.0091945696622 0.16461800039 -0.024134900421 0.0027304799296 0.15564599633 0.0074580898508
          0.0073211500421 0.15916499496 0.019529499114 0.0088290097192 0.16461400688 0.024140000343
          -0.007266189903 0.16976000369 -0.019521199167 0.0024781499524 0.21834799647 0.0083314897493
          -0.0015518700238 0.21415500343 -0.0041523701511 -0.0028578299098 0.21834200621 -0.0083141904324
          0.0034029800445 0.21257899702 0.010893800296 0.0069089201279 0.21529400349 0.021797800437
          -0.0016163199907 0.20558099449 -0.0041573299095 -0.0076721101068 0.20469599962 -0.021787699312
          -0.0046984897926 0.20996700227 -0.013454499654 -0.0030961700249 0.2011950016 -0.008324470371
          -0.00019129199791 0.2099069953 4.0580798668e-06 0.0035072800238 0.20727999508 0.010890600272
          -0.0092058703303 0.21013499796 -0.026931000873 0.0027103500906 0.20120100677 0.0083216000348
          0.0072945198044 0.204696998 0.021792100742 0.0088234497234 0.21013100445 0.026936199516
          -0.0072963899001 0.21529300511 -0.021781200543 0.0024806899019 0.26862201095 0.0091092400253
          -0.0015660000499 0.26441800594 -0.004540250171 -0.002881410066 0.26861700416 -0.0090899998322
          0.0033989700023 0.26283499599 0.011910899542 0.0069203698076 0.26554399729 0.023832099512
          -0.0016236200463 0.25584301353 -0.004546280019 -0.007664069999 0.25494399667 -0.023821599782
          -0.0047098798677 0.26021900773 -0.014711399563 -0.0030945199542 0.25146698952 -0.0091019999236
          -0.00020166199829 0.2601659894 4.0564500523e-06 0.0034922000486 0.25753599405 0.011907299981
          -0.0092180101201 0.2603699863 -0.029444400221 0.002688319888 0.25147101283 0.0090972399339
          0.0072651999071 0.25494500995 0.023824600503 0.0088148098439 0.26036599278 0.029449600726
          -0.0073281098157 0.26554399729 -0.023814199492 0.002481010044 0.32311499119 0.0098014902323
          -0.0015816399828 0.31890100241 -0.0048855901696 -0.0029062200338 0.3231100142 -0.0097804898396
          0.0033928600606 0.3173109889 0.012816400267 0.0069293999113 0.32001399994 0.025642499328
          -0.0016326600453 0.31032401323 -0.0048924400471 -0.0076582799666 0.30941200256 -0.025632200763
          -0.0047227898613 0.31469100714 -0.015830200166 -0.0030949099455 0.30595698953 -0.0097942203283
          -0.00021376200311 0.3146429956 4.0572099351e-06 0.0034754199442 0.31200999022 0.012812100351
          -0.009231810458 0.3148239851 -0.031681600958 0.0026648500934 0.30596101284 0.0097877401859
          0.0072347000241 0.30941200256 0.025634100661 0.0088044004515 0.31482100487 0.031686998904
          -0.0073608201928 0.32001298666 -0.02562369965 0.0024794300552 0.38134101033 0.010410699993
          -0.0015986900544 0.37711700797 -0.0051895300858 -0.0029321399052 0.38133698702 -0.010388200171
          0.0033850700129 0.3755210042 0.01361340005 0.0069362102076 0.37821799517 0.027235999703
          -0.0016433099518 0.36853900552 -0.0051971501671 -0.0076545001939 0.36761400104 -0.027225699276
          -0.0047371899709 0.37289699912 -0.016815099865 -0.0030971600208 0.36418101192 -0.010403400287
          -0.00022736600658 0.37285500765 4.0573600018e-06 0.003457270097 0.37022000551 0.013608699664
          -0.0092469900846 0.37301298976 -0.03365059942 0.0026402000804 0.36418500543 0.010395499878
          0.0072032199241 0.36761501431 0.027226600796 0.0087923500687 0.37301000953 0.033656101674
          -0.0073943501338 0.37821799517 -0.027216300368 0.0024760400411 0.44283300638 0.010939899832
          -0.0016168899601 0.43859899044 -0.0054535698146 -0.0029588600155 0.44282901287 -0.010916099884
          0.0033757099882 0.4369969964 0.014305699617 0.0069408598356 0.4396879971 0.028620000929
          -0.001655369997 0.43002000451 -0.0054618301801 -0.0076526599005 0.42908298969 -0.028609899804
          -0.0047528301366 0.43436899781 -0.017670599744 -0.0031011400279 0.42566999793 -0.010932600126
          -0.00024227899848 0.43433299661 4.0576401261e-06 0.0034379700664 0.43169501424 0.014300599694
          -0.009263349697 0.43446901441 -0.035360898823 0.0026146699674 0.42567399144 0.01092339959
          0.0071710702032 0.42908298969 0.028609799221 0.0087788803503 0.43446698785 0.035366501659
          -0.0074283601716 0.43968701363 -0.028599599376 0.0024709799327 0.50713801384 0.011392500252
          -0.001636049943 0.5028949976 -0.0056794201955 -0.0029861200601 0.507134974 -0.011367499828
          0.0033649499528 0.50128698349 0.014897899702 0.0069434200414 0.50397199392 0.029803700745
          -0.0016686699819 0.49431398511 -0.0056882398203 -0.0076526799239 0.49336600304 -0.029793700203
          -0.0047695101239 0.49865499139 -0.018402300775 -0.0031067400705 0.48997399211 -0.011385099962
          -0.00025830700179 0.49862501025 4.0578602238e-06 0.0034177401103 0.49598398805 0.014892400242
          -0.0092807002366 0.49873998761 -0.036823600531 0.0025885000359 0.48997598886 0.011374900118
          0.0071385800838 0.49336600304 0.029792800546 0.0087641598657 0.49873799086 0.036829300225
          -0.0074625201523 0.50397199392 -0.029782800004 0.0024643400684 0.57382702827 0.011772500351
          -0.0016559599899 0.56957602501 -0.005869070068 -0.0030136599671 0.57382500172 -0.011746499687
          0.0033529300708 0.56796300411 0.015395100228 0.006943940185 0.57064199448 0.030797500163
          -0.0016830599634 0.56099402905 -0.0058783502318 -0.0076545099728 0.56003397703 -0.030787499622
          -0.0047870799899 0.5653269887 -0.019016800448 -0.0031138500199 0.55666100979 -0.011765100062
          -0.00027527401107 0.56530100107 4.0580598579e-06 0.003396790009 0.56265902519 0.015389399603
          -0.00929887034 0.56539702415 -0.038051601499 0.0025619599037 0.55666297674 0.011753899977
          0.0071060499176 0.56003397703 0.030786000192 0.008748379536 0.56539601088 0.038057498634
          -0.0074965599924 0.57064199448 -0.030776100233 0.0024562000763 0.6424959898 0.012084400281
          -0.0016764299944 0.63823598623 -0.0060247899964 -0.003041239921 0.64249402285 -0.012057599612
          0.0033397800289 0.63661801815 0.015803400427 0.0069424500689 0.63929200172 0.031613200903
          -0.0016983899986 0.62965297699 -0.0060344398953 -0.0076581197791 0.628682971 -0.031603399664
          -0.0048053502105 0.63397800922 -0.01952129975 -0.0031224000268 0.62532800436 -0.012076900341
          -0.00029301398899 0.63395798206 4.0582499423e-06 0.0033753199968 0.63131302595 0.015797400847
          -0.009317680262 0.63403600454 -0.039059601724 0.0025352900848 0.62532901764 0.012065099552
          0.0070737800561 0.628682971 0.0316012986 0.0087316995487 0.63403397799 0.039065599442
          -0.0075301597826 0.63929200172 -0.031591501087 0.00244664005 0.71276497841 0.012333399616
          -0.0016972899903 0.7084980011 -0.0061491299421 -0.0030686100945 0.71276402473 -0.012306000106
          0.0033256199677 0.70687502623 0.016129400581 0.0069389701821 0.70954501629 0.032264299691
          -0.001714539947 0.69991397858 -0.0061590699479 -0.0076634800062 0.69893497229 -0.032254599035
          -0.004824180156 0.70423299074 -0.019924199209 -0.0031323200092 0.69559597969 -0.012325800024
          -0.00031137399492 0.7042170167 4.0584100134e-06 0.0033535200637 0.70156997442 0.016123300418
          -0.0093369903043 0.70427799225 -0.039864201099 0.0025087199174 0.69559699297 0.012313500047
          0.0070420601405 0.69893497229 0.032251998782 0.0087142698467 0.70427697897 0.039870399982
          -0.0075630298816 0.70954501629 -0.032242301852 0.0024357100483 0.7842900157 0.012525100261
          -0.0017183800228 0.78001600504 -0.0062449402176 -0.0030955600087 0.78428900242 -0.012497199699
          0.0033105399925 0.77838897705 0.016380600631 0.0069335000589 0.7810549736 0.03276560083
          -0.0017313800054 0.77143198252 -0.0062551097944 -0.0076706102118 0.77044397593 -0.03275610134
          -0.0048434399068 0.77574402094 -0.02023459971 -0.0031435599085 0.76711899042 -0.012517499737
          -0.00033021700801 0.7757319808 4.0585500756e-06 0.0033315699548 0.77308297157 0.016374299303
          -0.0093566495925 0.77577799559 -0.040483698249 0.0024824799038 0.7671200037 0.012504800223
          0.0070111700334 0.77044397593 0.032752998173 0.008696240373 0.77577698231 0.040490098298
          -0.0075949202292 0.7810549736 -0.032743498683 0.0024234401062 0.85675698519 0.012665900402
          -0.0017395600444 0.85247802734 -0.0063153700903 -0.0031218600925 0.85675698519 -0.012637600303
          0.0032946299762 0.85084700584 0.016565300524 0.0069260098971 0.85351002216 0.033133801073
          -0.0017488299636 0.84389299154 -0.0063256998546 -0.0076795001514 0.84289801121 -0.033124499023
          -0.0048629902303 0.84820002317 -0.020462799817 -0.0031560799107 0.83958601952 -0.012658299878
          -0.00034942099592 0.84819102287 4.0586701289e-06 0.0033096401021 0.84554100037 0.016558900476
          -0.0093765500933 0.84822398424 -0.040938600898 0.0024567800574 0.83958697319 0.012645299546
          0.0069813700393 0.84289801121 0.033121000975 0.0086777200922 0.84822297096 0.04094529897
          -0.0076255500317 0.85351002216 -0.033111698925 0.0024098500144 0.92989498377 0.012762799859
          -0.0017606799956 0.92561000586 -0.0063638798892 -0.0031473299023 0.92989397049 -0.012734100223
          0.0032779499888 0.9239770174 0.016692399979 0.0069164601155 0.92663598061 0.033386901021
          -0.0017667999491 0.91702502966 -0.0063743200153 -0.0076902098954 0.91602301598 -0.033377800137
          -0.004882730078 0.9213269949 -0.020619900897 -0.0031698599923 0.91272199154 -0.012755000032
          -0.00036887900205 0.92132097483 4.0587601688e-06 0.0032878499478 0.91866999865 0.01668599993
          -0.0093965698034 0.92134302855 -0.041251398623 0.0024318099022 0.91272300482 0.012741900049
          0.0069529102184 0.91602301598 0.033373899758 0.0086588300765 0.92134201527 0.041258301586
          -0.0076546799392 0.92663598061 -0.033364798874 0.0023949500173 1.003469944 0.012823199853
          -0.0017816399923 0.99918097258 -0.0063942298293 -0.0031717899255 1.003469944 -0.012794299982
          0.0032605601009 0.99754500389 0.016772000119 0.0069047999568 1.0002000332 0.033544700593
          -0.0017852099845 0.9905949831 -0.0064047500491 -0.0077027701773 0.98958802223 -0.033535800874
          -0.0049025700428 0.99489301443 -0.020718300715 -0.003184919944 0.9862959981 -0.012815300375
          -0.0003885019978 0.99488997459 4.0588402044e-06 0.0032663499005 0.99223798513 0.016765499488
          -0.0094166398048 0.99490302801 -0.041446398944 0.0024077401031 0.9862959981 0.012802099809
          0.0069260299206 0.98958802223 0.03353169933 0.0086396401748 0.99490201473 0.041453499347
          -0.0076820701361 1.0002000332 -0.033522799611 0.0023787000682 1.0772900581 0.012855299748
          -0.0018023400335 1.0729999542 -0.0064105098136 -0.0031950699631 1.0772900581 -0.012826300226
          0.0032424901146 1.071359992 0.016814699396 0.0068909400143 1.0740200281 0.033628601581
          -0.0018040500581 1.0644199848 -0.0064210598357 -0.007717280183 1.0634100437 -0.033619899303
          -0.0049224500544 1.0687099695 -0.020771000534 -0.0032012599986 1.0601199865 -0.01284740027
          -0.00040821998846 1.0687099695 4.0588902266e-06 0.0032452500891 1.066059947 0.016808200628
          -0.0094366697595 1.0687199831 -0.04155009985 0.0023847399279 1.0601199865 0.012834199704
          0.0069009601139 1.0634100437 0.033615499735 0.0086202397943 1.0687199831 0.041557498276
          -0.007707499899 1.0740200281 -0.033606901765 0.0023610999342 1.1512299776 0.012868099846
          -0.0018227100372 1.1469399929 -0.0064171198756 -0.0032170501072 1.1512299776 -0.012838900089
          0.0032237500418 1.1453000307 0.016831999645 0.0068748299964 1.1479500532 0.033661600202
          -0.0018232499715 1.1383500099 -0.0064276899211 -0.0077337902039 1.1373399496 -0.033653199673
          -0.0049422997981 1.1426500082 -0.020792400464 -0.0032189199701 1.1340600252 -0.012860000134
          -0.00042797898641 1.1426399946 4.0589297896e-06 0.0032246098854 1.1399899721 0.016825500876
          -0.0094566196203 1.1426500082 -0.041590798646 0.0023629399948 1.1340600252 0.01284690015
          0.0068778600544 1.1373399496 0.033648498356 0.0086006596684 1.1426500082 0.041598599404
          -0.0077308099717 1.1479500532 -0.033640101552 0.0023420599755 1.2251900434 0.01287079975
          -0.0018426900497 1.2209000587 -0.0064186598174 -0.003237549914 1.2251900434 -0.012841599993
          0.0032043200918 1.2192599773 0.016836099327 0.0068562701344 1.2219099998 0.033668600023
          -0.0018428399926 1.2123099566 -0.0064292401075 -0.0077524702065 1.2113000154 -0.033660400659
          -0.0049621001817 1.2166099548 -0.020797399804 -0.003237989964 1.2080199718 -0.012862700038
          -0.00044774898561 1.2166099548 4.058939794e-06 0.0032045599073 1.213950038 0.016829499975
          -0.0094764502719 1.2166099548 -0.041599500924 0.0023424900137 1.2080199718 0.012849699706
          0.0068569798023 1.2113000154 0.033655498177 0.0085809500888 1.2166099548 0.041607499123
          -0.0077517698519 1.2219099998 -0.033647298813 0.0030312500894 0.03441169858 0.0031262200791
          -0.0017687500222 0.033824600279 -0.0015078999568 -0.0033823200502 0.034391399473 -0.0031280498952
          0.0040105502121 0.03357790038 0.003885650076 0.0081512099132 0.034087698907 0.0080491900444
          -0.0018111700192 0.031890999526 -0.0013963199453 -0.00877100043 0.03187860176 -0.0073380898684
          -0.0053799399175 0.03305010125 -0.0046673999168 -0.0035126700532 0.030748499557 -0.0027279199567
          -0.0001750359952 0.032969001681 4.3219301915e-06 0.0040751402266 0.032382600009 0.0037206900306
          -0.010588900186 0.033252999187 -0.0094304103404 0.0031530000269 0.030748199672 0.0027487000916
          0.0084293801337 0.031888600439 0.0073449998163 0.010249800049 0.033262498677 0.0094290701672
          -0.0085086803883 0.034108899534 -0.0080223204568 -0.0020870200824 0.0079345302656 -0.00033030399936
          -0.010209999979 0.007945580408 -0.0017109300243 -0.0039884098805 0.007819079794 -0.00067823001882
          -0.00017005500558 0.0081749204546 5.9328099269e-06 0.0048462301493 0.0080178901553 0.00084386701928
          0.0036453900393 0.0078075001948 0.00068250397453 0.0098622804508 0.0079547101632 0.0016956300242
          0.0024340499658 -0.069454200566 -0.0044060498476 -0.0015299799852 -0.065403796732 0.00218236004
          -0.0027947199997 -0.069439202547 0.0043753799982 0.0024415301159 -0.0979052037 -0.0054748398252
          -0.0015377500094 -0.093719601631 0.0027134600095 -0.0028176000342 -0.097899697721 0.0054461602122
          0.0033998899162 -0.063868202269 -0.0057358602062 0.0033792899922 -0.092157803476 -0.0071486500092
          0.0068613202311 -0.066528901458 -0.011428300291 0.0068333600648 -0.094910502434 -0.014316500165
          -0.0016304299934 -0.056847900152 0.0021296299528 -0.0078180301934 -0.056058701128 0.011177299544
          -0.0047108898871 -0.061289500445 0.0070210699923 -0.0016204799758 -0.085131801665 0.0027238801122
          -0.0077050598338 -0.08428350091 0.0143058002 -0.0046830899082 -0.089552797377 0.008814830333
          -0.0031843199395 -0.052423998713 0.0042187301442 -0.0031224000268 -0.08070769906 0.005470499862
          -0.00018105699564 -0.061204098165 -9.8295104181e-06 -0.00018985799397 -0.089474700391 -9.4821298262e-06
          0.0035629998893 -0.058585200459 -0.0056415097788 0.003512789961 -0.08685079962 -0.0071524400264
          -0.0092426398769 -0.061517298222 0.014000999741 -0.0091780200601 -0.089778698981 0.017668899149
          0.0028097999748 -0.052430700511 -0.0042340899818 0.0027392599732 -0.080715499818 -0.0054755997844
          0.0074655599892 -0.056067299098 -0.011190700345 0.007332180161 -0.084282197058 -0.014322400093
          0.0088853398338 -0.061510998756 -0.014025200158 0.0087979696691 -0.089773401618 -0.017683699727
          -0.0072310301475 -0.06653559953 0.011416899972 -0.0072198901325 -0.094908997416 0.014285500161
          0.0024409200996 -0.13246299326 -0.0065209199674 -0.0015564899659 -0.12829600275 0.003236599965
          -0.0028428700753 -0.13245500624 0.0064866701141 0.0033815801144 -0.1267350018 -0.0085211796686
          0.0068581500091 -0.12946100533 -0.017043599859 -0.0016356699634 -0.11972600222 0.0032447599806
          -0.0077295899391 -0.11886899918 0.017028499395 -0.0047125299461 -0.12413199991 0.010509200394
          -0.003135390114 -0.11531999707 0.0065050101839 -0.00020269899687 -0.12405899912 -9.6303601822e-06
          0.0035097899381 -0.12143699825 -0.0085171302781 -0.0092228204012 -0.12433599681 0.021045299247
          0.0027256899048 -0.11532700062 -0.0065078800544 0.0073302201927 -0.11886899918 -0.017040200531
          0.0088178701699 -0.12433099747 -0.021061699837 -0.0072691999376 -0.12946000695 0.017012899742
          0.0024387200829 -0.17280399799 -0.0074783498421 -0.0015769100282 -0.16861900687 0.0037123600487
          -0.0028740800917 -0.17279799283 0.0074405800551 0.0033704699017 -0.16704900563 -0.0097696604207
          0.0068617900833 -0.16977199912 -0.019545700401 -0.001648030011 -0.16004399955 0.0037220800295
          -0.0077209598385 -0.1591719985 0.019521700218 -0.0047273901291 -0.1644410044 0.012050599791
          -0.003137330059 -0.15564499795 0.0074589601718 -0.00021924100292 -0.16437500715 -9.5926898211e-06
          0.0034855299164 -0.16174900532 -0.0097634103149 -0.0092349499464 -0.16462700069 0.024129100144
          0.0026952701155 -0.15565100312 -0.0074576698244 0.0072880098596 -0.1591719985 -0.019531199709
          0.0087966695428 -0.16462300718 -0.024145299569 -0.0073058400303 -0.16977199912 0.019511800259
          0.0024313300382 -0.21836000681 -0.0083434702829 -0.0016005299985 -0.21416500211 0.0041435300373
          -0.0029071399476 -0.21835400164 0.0083020301536 0.0033565899357 -0.2125889957 -0.010901199654
          0.0068641700782 -0.21530500054 -0.021807199344 -0.0016649799654 -0.20558799803 0.004155009985
          -0.0077233901247 -0.20470300317 0.02178600058 -0.0047485199757 -0.20997600257 0.01344879996
          -0.0031454900745 -0.20119999349 0.0083253597841 -0.00023931500618 -0.2099159956 -9.6020103229e-06
          0.003460889915 -0.20728699863 -0.010893999599 -0.0092578800395 -0.21014399827 0.026925100014
          0.0026635299437 -0.20120599866 -0.0083205299452 0.0072497702204 -0.20470300317 -0.021793300286
          0.0087794996798 -0.21014000475 -0.026941500604 -0.0073476601392 -0.21530400217 0.021771399304
          0.0024210899137 -0.26863399148 -0.0091218203306 -0.0016274399823 -0.26442798972 0.0045311101712
          -0.0029435099568 -0.26862901449 0.0090772602707 0.0033398000523 -0.26284500957 -0.011918599717
          0.006862829905 -0.26555499434 -0.023841800168 -0.0016850599786 -0.25584900379 0.0045442502014
          -0.007728130091 -0.25494998693 0.023820299655 -0.0047726901248 -0.26022699475 0.014705699869
          -0.0031566100661 -0.25147101283 0.0091034900397 -0.00026246800553 -0.26017400622 -9.6009198387e-06
          0.003433020087 -0.25754201412 -0.011910500005 -0.0092828096822 -0.26037800312 0.029438599944
          0.0026287198998 -0.25147598982 -0.0090955803171 0.0072076600045 -0.25494998693 -0.02382550016
          0.0087580801919 -0.26037400961 -0.029454899952 -0.0073921699077 -0.26555401087 0.02380410023
          0.0024075799156 -0.32312598825 -0.0098146004602 -0.0016569000436 -0.31891000271 0.0048761800863
          -0.0029821400531 -0.32312199473 0.0097672203556 0.0033198599704 -0.3173199892 -0.012824200094
          0.006858040113 -0.32002401352 -0.025652600452 -0.0017079199897 -0.31032899022 0.0048906700686
          -0.0077361701988 -0.30941700935 0.025631200522 -0.0047994297929 -0.31469801068 0.015824599192
          -0.0031708299648 -0.30596101284 0.009796240367 -0.00028839299921 -0.31465101242 -9.6020303317e-06
          0.0034024200868 -0.31201699376 -0.012815199792 -0.0093104401603 -0.31483098865 0.031675800681
          0.002591419965 -0.30596500635 -0.0097855702043 0.0071633402258 -0.30941700935 -0.025634700432
          0.0087338304147 -0.31482800841 -0.031692199409 -0.0074387099594 -0.32002300024 0.025613199919
          0.0023912598845 -0.38135200739 -0.010424300097 -0.0016887000529 -0.37712600827 0.0051798899658
          -0.0030227999669 -0.38134801388 0.010374500416 0.0032973201014 -0.3755300045 -0.013621300459
          0.0068501001224 -0.37822699547 -0.027246300131 -0.0017333199503 -0.36854401231 0.0051956102252
          -0.0077471300028 -0.36761900783 0.027225000784 -0.0048285801895 -0.37290400267 0.016809400171
          -0.0031878200825 -0.36418399215 0.010405899957 -0.00031674499041 -0.37286299467 -9.6025596577e-06
          0.0033695299644 -0.37022599578 -0.013611599803 -0.0093403700739 -0.37301999331 0.033644799143
          0.0025520399213 -0.36418798566 -0.010392799973 0.0071171098389 -0.36761900783 -0.027226900682
          0.0087070399895 -0.37301799655 -0.033661399037 -0.0074869901873 -0.37822699547 0.027205500752
          0.0023723300546 -0.44284299016 -0.010953900404 -0.0017224600306 -0.43860799074 0.0054437299259
          -0.0030650699046 -0.44284000993 0.010901900008 0.0032724100165 -0.43700501323 -0.01431380026
          0.0068391901441 -0.4396969974 -0.02863059938 -0.0017609300558 -0.43002399802 0.0054604997858
          -0.0077608497813 -0.42908701301 0.028609400615 -0.0048597701825 -0.43437498808 0.01766490005
          -0.0032073499169 -0.42567300797 0.010935500264 -0.00034721300472 -0.43433898687 -9.603179933e-06
          0.0033346700948 -0.43169999123 -0.014303400181 -0.0093722902238 -0.43447598815 0.035355098546
          0.0025109499693 -0.4256759882 -0.010920300148 0.0070694098249 -0.42908701301 -0.028609899804
          0.0086780004203 -0.43447300792 -0.035371799022 -0.0075365500525 -0.4396969974 0.028588600457
          0.0023510199971 -0.50714802742 -0.011406799778 -0.0017578599509 -0.50290298462 0.0056694098748
          -0.0031085798983 -0.50714498758 0.011353000067 0.003245400032 -0.50129497051 -0.014906000346
          0.0068255001679 -0.50398099422 -0.029814599082 -0.0017904900014 -0.4943189919 0.005687079858
          -0.0077771199867 -0.49336999655 0.029793400317 -0.0048927101307 -0.49866101146 0.018396699801
          -0.003229189897 -0.48997598886 0.011388399638 -0.00037949401303 -0.49863100052 -9.6037101684e-06
          0.0032981899567 -0.49598899484 -0.014895100147 -0.0094058997929 -0.49874600768 0.036817800254
          0.0024685401004 -0.4899789989 -0.011371499859 0.0070206602104 -0.49336999655 -0.029792699963
          0.0086470302194 -0.49874401093 -0.036834601313 -0.007586969994 -0.50398099422 0.029771499336
          0.0023275399581 -0.57383698225 -0.011787099764 -0.0017946100561 -0.56958401203 0.0058589200489
          -0.0031529599801 -0.5738350153 0.011731799692 0.0032165399753 -0.56796997786 -0.015403400175
          0.0068091801368 -0.57065099478 -0.030808499083 -0.0018217200413 -0.56099802256 0.0058773299679
          -0.0077957999893 -0.56003797054 0.030787499622 -0.0049271201715 -0.56533199549 0.019011100754
          -0.0032531500328 -0.55666297674 0.011768599972 -0.00041330300155 -0.56530702114 -9.6041903817e-06
          0.0032603899017 -0.5626630187 -0.015391999856 -0.0094409100711 -0.56540298462 0.038045901805
          0.0024251600262 -0.5566650033 -0.011750300415 0.0069712898694 -0.56003797054 -0.030785700306
          0.0086144004017 -0.56540101767 -0.038062799722 -0.00763784023 -0.5706499815 0.030764700845
          0.0023020699155 -0.6425049901 -0.01209929958 -0.0018324200064 -0.63824301958 0.0060145198368
          -0.0031978599727 -0.64250302315 0.01204259973 0.0031860601157 -0.63662397861 -0.015811700374
          0.0067903599702 -0.63929998875 -0.031624399126 -0.0018543800106 -0.6296569705 0.006033539772
          -0.0078167403117 -0.62868601084 0.031603500247 -0.0049627302215 -0.63398402929 0.019515700638
          -0.0032790300902 -0.62532901764 0.012080700137 -0.000448375009 -0.63396298885 -9.6046296676e-06
          0.0032215900719 -0.63131701946 -0.015799999237 -0.0094770602882 -0.63404101133 0.039053898305
          0.002381159924 -0.62533098459 -0.012061200105 0.0069216899574 -0.62868601084 -0.031600799412
          0.0085803903639 -0.63403999805 -0.039071001112 -0.0076887798496 -0.63929998875 0.031579900533
          0.0022747800685 -0.71277397871 -0.012348400429 -0.0018710100558 -0.70850497484 0.0061387699097
          -0.0032429599669 -0.71277201176 0.01229079999 0.0031541599892 -0.70688199997 -0.016137799248
          0.0067691500299 -0.70955300331 -0.032275501639 -0.0018882600125 -0.69991701841 0.0061582699418
          -0.0078398399055 -0.69893801212 0.0322548002 -0.0049992902204 -0.70423799753 0.019918499514
          -0.0033066701144 -0.69559699297 0.012329800054 -0.00048446501023 -0.70422202349 -9.6050098364e-06