<?xml version="1.0"?>
<!--Shaheen-->
<VTKFile type="UnstructuredGrid" version="0.1" byte_order="LittleEndian">
  <UnstructuredGrid>
    <Piece NumberOfPoints="791" NumberOfCells="973">
      <Points>
        <DataArray type="Float32" NumberOfComponents="3" format="ascii">
-0.190211 -0.0618034 -0.866203 -0.17591 0.0347644 -0.761951 -0.166717 -0.0910144 -0.722131 0 -0.0768927 -0.886453 0.190211 -0.0618034 -0.866203 0.166717 -0.0910144 -0.722131 0.17591 0.0347644 -0.761951 -0.190211 0.0618034 -0.866203 -0.181592 0.2 -0.786562 -0.117557 0.161803 -0.847614 0 0.0768927 -0.886453 0.181592 0.2 -0.786562 0.190211 0.0618034 -0.866203 0.117557 0.161803 -0.847614 -0.181592 -0.2 -0.786562 -0.117557 -0.161803 -0.847614 0.181592 -0.2 -0.786562 0.117557 -0.161803 -0.847614 -0.151842 0.1125 -0.6577 0 0.2 -0.792573 0.151842 0.1125 -0.6577 -0.151842 0.225 -0.6577 0.151842 0.225 -0.6577 0.151842 -0.225 -0.6577 0 -0.2 -0.792573 -0.151842 -0.225 -0.6577 0 -7.38343e-17 -0.9 0.888988 -0.0695288 0.4 0.781994 0.0347644 0.4 0.888988 0.0695288 0.4 0.888988 -0.0695288 2.2226e-15 0.781994 0.0347644 2.2357e-15 0.888988 0.0695288 2.2226e-15 0.741126 -0.0910144 0.4 0.741126 -0.0910144 2.24071e-15 0.807252 -0.182029 0.4 0.807252 -0.182029 2.23261e-15 0.568006 0.0347644 0.4 0.542748 0.182029 0.4 0.675 0.1125 0.4 0.568006 0.0347644 2.26191e-15 0.542748 0.182029 2.265e-15 0.675 0.1125 2.2488e-15 0.461012 0.0695288 0.4 0.461012 0.0695288 2.27501e-15 0.675 0 0.4 0.675 0 2.2488e-15 0.608874 -0.0910144 0.4 0.608874 -0.0910144 2.2569e-15 0.675 0.225 0.4 0.675 0.225 2.2488e-15 0.461012 -0.0695288 0.4 0.461012 -0.0695288 2.27501e-15 0.542748 -0.182029 0.4 0.542748 -0.182029 2.265e-15 0.675 -0.225 0.4 0.675 -0.225 2.2488e-15 0.807252 0.182029 0.4 0.807252 0.182029 2.23261e-15 0.888988 -0.0695288 0.8 0.781994 0.0347644 0.8 0.888988 0.0695288 0.8 0.741126 -0.0910144 0.8 0.807252 -0.182029 0.8 0.568006 0.0347644 0.8 0.542748 0.182029 0.8 0.675 0.1125 0.8 0.461012 0.0695288 0.8 0.675 0 0.8 0.608874 -0.0910144 0.8 0.675 0.225 0.8 0.461012 -0.0695288 0.8 0.542748 -0.182029 0.8 0.675 -0.225 0.8 0.807252 0.182029 0.8 0.888988 -0.0695288 1.2 0.781994 0.0347644 1.2 0.888988 0.0695288 1.2 0.741126 -0.0910144 1.2 0.807252 -0.182029 1.2 0.568006 0.0347644 1.2 0.542748 0.182029 1.2 0.675 0.1125 1.2 0.461012 0.0695288 1.2 0.675 0 1.2 0.608874 -0.0910144 1.2 0.675 0.225 1.2 0.461012 -0.0695288 1.2 0.542748 -0.182029 1.2 0.675 -0.225 1.2 0.807252 0.182029 1.2 0.888988 -0.0695288 1.6 0.781994 0.0347644 1.6 0.888988 0.0695288 1.6 0.741126 -0.0910144 1.6 0.807252 -0.182029 1.6 0.568006 0.0347644 1.6 0.542748 0.182029 1.6 0.675 0.1125 1.6 0.461012 0.0695288 1.6 0.675 0 1.6 0.608874 -0.0910144 1.6 0.675 0.225 1.6 0.461012 -0.0695288 1.6 0.542748 -0.182029 1.6 0.675 -0.225 1.6 0.807252 0.182029 1.6 0.888988 -0.0695288 2 0.781994 0.0347644 2 0.888988 0.0695288 2 0.741126 -0.0910144 2 0.807252 -0.182029 2 0.568006 0.0347644 2 0.542748 0.182029 2 0.675 0.1125 2 0.461012 0.0695288 2 0.675 0 2 0.608874 -0.0910144 2 0.675 0.225 2 0.461012 -0.0695288 2 0.542748 -0.182029 2 0.675 -0.225 2 0.807252 0.182029 2 0.888988 -0.0695288 2.4 0.781994 0.0347644 2.4 0.888988 0.0695288 2.4 0.741126 -0.0910144 2.4 0.807252 -0.182029 2.4 0.568006 0.0347644 2.4 0.542748 0.182029 2.4 0.675 0.1125 2.4 0.461012 0.0695288 2.4 0.675 0 2.4 0.608874 -0.0910144 2.4 0.675 0.225 2.4 0.461012 -0.0695288 2.4 0.542748 -0.182029 2.4 0.675 -0.225 2.4 0.807252 0.182029 2.4 0.888988 -0.0695288 2.8 0.781994 0.0347644 2.8 0.888988 0.0695288 2.8 0.741126 -0.0910144 2.8 0.807252 -0.182029 2.8 0.568006 0.0347644 2.8 0.542748 0.182029 2.8 0.675 0.1125 2.8 0.461012 0.0695288 2.8 0.675 0 2.8 0.608874 -0.0910144 2.8 0.675 0.225 2.8 0.461012 -0.0695288 2.8 0.542748 -0.182029 2.8 0.675 -0.225 2.8 0.807252 0.182029 2.8 0.888988 -0.0695288 3.2 0.781994 0.0347644 3.2 0.888988 0.0695288 3.2 0.741126 -0.0910144 3.2 0.807252 -0.182029 3.2 0.568006 0.0347644 3.2 0.542748 0.182029 3.2 0.675 0.1125 3.2 0.461012 0.0695288 3.2 0.675 0 3.2 0.608874 -0.0910144 3.2 0.675 0.225 3.2 0.461012 -0.0695288 3.2 0.542748 -0.182029 3.2 0.675 -0.225 3.2 0.807252 0.182029 3.2 0.888988 -0.0695288 3.6 0.781994 0.0347644 3.6 0.888988 0.0695288 3.6 0.741126 -0.0910144 3.6 0.807252 -0.182029 3.6 0.568006 0.0347644 3.6 0.542748 0.182029 3.6 0.675 0.1125 3.6 0.461012 0.0695288 3.6 0.675 0 3.6 0.608874 -0.0910144 3.6 0.675 0.225 3.6 0.461012 -0.0695288 3.6 0.542748 -0.182029 3.6 0.675 -0.225 3.6 0.807252 0.182029 3.6 0.888988 -0.0695288 4 0.781994 0.0347644 4 0.888988 0.0695288 4 0.741126 -0.0910144 4 0.807252 -0.182029 4 0.568006 0.0347644 4 0.542748 0.182029 4 0.675 0.1125 4 0.461012 0.0695288 4 0.675 0 4 0.608874 -0.0910144 4 0.675 0.225 4 0.461012 -0.0695288 4 0.542748 -0.182029 4 0.675 -0.225 4 0.807252 0.182029 4 0.888988 -0.0695288 4.4 0.781994 0.0347644 4.4 0.888988 0.0695288 4.4 0.741126 -0.0910144 4.4 0.807252 -0.182029 4.4 0.568006 0.0347644 4.4 0.542748 0.182029 4.4 0.675 0.1125 4.4 0.461012 0.0695288 4.4 0.675 0 4.4 0.608874 -0.0910144 4.4 0.675 0.225 4.4 0.461012 -0.0695288 4.4 0.542748 -0.182029 4.4 0.675 -0.225 4.4 0.807252 0.182029 4.4 0.888988 -0.0695288 4.8 0.781994 0.0347644 4.8 0.888988 0.0695288 4.8 0.741126 -0.0910144 4.8 0.807252 -0.182029 4.8 0.568006 0.0347644 4.8 0.542748 0.182029 4.8 0.675 0.1125 4.8 0.461012 0.0695288 4.8 0.675 0 4.8 0.608874 -0.0910144 4.8 0.675 0.225 4.8 0.461012 -0.0695288 4.8 0.542748 -0.182029 4.8 0.675 -0.225 4.8 0.807252 0.182029 4.8 0.888988 -0.0695288 5.2 0.781994 0.0347644 5.2 0.888988 0.0695288 5.2 0.741126 -0.0910144 5.2 0.807252 -0.182029 5.2 0.568006 0.0347644 5.2 0.542748 0.182029 5.2 0.675 0.1125 5.2 0.461012 0.0695288 5.2 0.675 0 5.2 0.608874 -0.0910144 5.2 0.675 0.225 5.2 0.461012 -0.0695288 5.2 0.542748 -0.182029 5.2 0.675 -0.225 5.2 0.807252 0.182029 5.2 0.888988 -0.0695288 5.6 0.781994 0.0347644 5.6 0.888988 0.0695288 5.6 0.741126 -0.0910144 5.6 0.807252 -0.182029 5.6 0.568006 0.0347644 5.6 0.542748 0.182029 5.6 0.675 0.1125 5.6 0.461012 0.0695288 5.6 0.675 0 5.6 0.608874 -0.0910144 5.6 0.675 0.225 5.6 0.461012 -0.0695288 5.6 0.542748 -0.182029 5.6 0.675 -0.225 5.6 0.807252 0.182029 5.6 0.888988 -0.0695288 6 0.781994 0.0347644 6 0.888988 0.0695288 6 0.741126 -0.0910144 6 0.807252 -0.182029 6 0.568006 0.0347644 6 0.542748 0.182029 6 0.675 0.1125 6 0.461012 0.0695288 6 0.675 0 6 0.608874 -0.0910144 6 0.675 0.225 6 0.461012 -0.0695288 6 0.542748 -0.182029 6 0.675 -0.225 6 0.807252 0.182029 6 0.888988 -0.0695288 6.4 0.781994 0.0347644 6.4 0.888988 0.0695288 6.4 0.741126 -0.0910144 6.4 0.807252 -0.182029 6.4 0.568006 0.0347644 6.4 0.542748 0.182029 6.4 0.675 0.1125 6.4 0.461012 0.0695288 6.4 0.675 0 6.4 0.608874 -0.0910144 6.4 0.675 0.225 6.4 0.461012 -0.0695288 6.4 0.542748 -0.182029 6.4 0.675 -0.225 6.4 0.807252 0.182029 6.4 0.888988 -0.0695288 6.8 0.781994 0.0347644 6.8 0.888988 0.0695288 6.8 0.741126 -0.0910144 6.8 0.807252 -0.182029 6.8 0.568006 0.0347644 6.8 0.542748 0.182029 6.8 0.675 0.1125 6.8 0.461012 0.0695288 6.8 0.675 0 6.8 0.608874 -0.0910144 6.8 0.675 0.225 6.8 0.461012 -0.0695288 6.8 0.542748 -0.182029 6.8 0.675 -0.225 6.8 0.807252 0.182029 6.8 0.888988 -0.0695288 7.2 0.781994 0.0347644 7.2 0.888988 0.0695288 7.2 0.741126 -0.0910144 7.2 0.807252 -0.182029 7.2 0.568006 0.0347644 7.2 0.542748 0.182029 7.2 0.675 0.1125 7.2 0.461012 0.0695288 7.2 0.675 0 7.2 0.608874 -0.0910144 7.2 0.675 0.225 7.2 0.461012 -0.0695288 7.2 0.542748 -0.182029 7.2 0.675 -0.225 7.2 0.807252 0.182029 7.2 0.888988 -0.0695288 7.6 0.781994 0.0347644 7.6 0.888988 0.0695288 7.6 0.741126 -0.0910144 7.6 0.807252 -0.182029 7.6 0.568006 0.0347644 7.6 0.542748 0.182029 7.6 0.675 0.1125 7.6 0.461012 0.0695288 7.6 0.675 0 7.6 0.608874 -0.0910144 7.6 0.675 0.225 7.6 0.461012 -0.0695288 7.6 0.542748 -0.182029 7.6 0.675 -0.225 7.6 0.807252 0.182029 7.6 0.695729 -0.0695288 -0.553408 0.611995 0.0347644 -0.486803 0.695729 0.0695288 -0.553408 0.580011 -0.0910144 -0.461362 0.631762 -0.182029 -0.502526 0.444526 0.0347644 -0.353592 0.424759 0.182029 -0.337869 0.528261 0.1125 -0.420197 0.360792 0.0695288 -0.286987 0.528261 0 -0.420197 0.47651 -0.0910144 -0.379033 0.528261 0.225 -0.420197 0.360792 -0.0695288 -0.286987 0.424759 -0.182029 -0.337869 0.528261 -0.225 -0.420197 0.631762 0.182029 -0.502526 0.127774 0.0347644 -0.553448 0.122092 0.182029 -0.528838 0.103705 0.0695288 -0.449197 0.151842 0 -0.6577 0.136967 -0.0910144 -0.593269 0.103705 -0.0695288 -0.449197 0.122092 -0.182029 -0.528838 -0.888988 -0.0695288 2.2226e-15 -0.781994 0.0347644 2.2357e-15 -0.888988 0.0695288 2.2226e-15 -0.888988 -0.0695288 0.4 -0.781994 0.0347644 0.4 -0.888988 0.0695288 0.4 -0.741126 -0.0910144 2.24071e-15 -0.741126 -0.0910144 0.4 -0.807252 -0.182029 2.23261e-15 -0.807252 -0.182029 0.4 -0.568006 0.0347644 2.26191e-15 -0.542748 0.182029 2.265e-15 -0.675 0.1125 2.2488e-15 -0.568006 0.0347644 0.4 -0.542748 0.182029 0.4 -0.675 0.1125 0.4 -0.461012 0.0695288 2.27501e-15 -0.461012 0.0695288 0.4 -0.675 0 2.2488e-15 -0.675 0 0.4 -0.608874 -0.0910144 2.2569e-15 -0.608874 -0.0910144 0.4 -0.675 0.225 2.2488e-15 -0.675 0.225 0.4 -0.461012 -0.0695288 2.27501e-15 -0.461012 -0.0695288 0.4 -0.542748 -0.182029 2.265e-15 -0.542748 -0.182029 0.4 -0.675 -0.225 2.2488e-15 -0.675 -0.225 0.4 -0.807252 0.182029 2.23261e-15 -0.807252 0.182029 0.4 -0.888988 -0.0695288 0.8 -0.781994 0.0347644 0.8 -0.888988 0.0695288 0.8 -0.741126 -0.0910144 0.8 -0.807252 -0.182029 0.8 -0.568006 0.0347644 0.8 -0.542748 0.182029 0.8 -0.675 0.1125 0.8 -0.461012 0.0695288 0.8 -0.675 0 0.8 -0.608874 -0.0910144 0.8 -0.675 0.225 0.8 -0.461012 -0.0695288 0.8 -0.542748 -0.182029 0.8 -0.675 -0.225 0.8 -0.807252 0.182029 0.8 -0.888988 -0.0695288 1.2 -0.781994 0.0347644 1.2 -0.888988 0.0695288 1.2 -0.741126 -0.0910144 1.2 -0.807252 -0.182029 1.2 -0.568006 0.0347644 1.2 -0.542748 0.182029 1.2 -0.675 0.1125 1.2 -0.461012 0.0695288 1.2 -0.675 0 1.2 -0.608874 -0.0910144 1.2 -0.675 0.225 1.2 -0.461012 -0.0695288 1.2 -0.542748 -0.182029 1.2 -0.675 -0.225 1.2 -0.807252 0.182029 1.2 -0.888988 -0.0695288 1.6 -0.78199
[...]
      <PointData>
        <DataArray type="Float32" Name="displacement" NumberOfComponents="3" format="ascii">
0.0030949 -0.00897622 -0.000220359 -0.00205076 -0.0086162 0.000232288 0.00479557 -0.00842867 -0.000701952 0.00382119 6.90515e-08 6.74586e-07 0.00309228 0.00897279 0.000220813 0.00480162 0.00842573 0.000703602 -0.00205615 0.00861351 -0.000231537 -0.00343402 -0.00899631 0.000201972 -0.0110368 -0.00895539 0.00147945 -0.00868251 -0.00564818 0.00031885 -0.00415142 1.12434e-07 2.64212e-07 -0.0110333 0.00895188 -0.00147986 -0.00343618 0.00899279 -0.000200584 -0.00867884 0.00564681 -0.000317478 0.0107281 -0.00898462 -0.00149333 0.00833217 -0.00568727 -0.000405255 0.0107245 0.00898018 0.00149399 0.00831912 0.00568479 0.000407222 -0.00636058 -0.008196 0.000972312 -0.0109756 -8.91662e-07 1.10158e-06 -0.0063544 0.00819384 -0.000971039 -0.0125612 -0.00832368 0.00182179 -0.0125527 0.00832076 -0.00182095 0.0122073 0.0082672 0.00185585 0.0105857 -1.85009e-06 1.24843e-06 0.0122125 -0.0082692 -0.00185407 -0.000172559 -1.68101e-08 2.25671e-07 0.00245753 0.0978912 0.00546504 -0.00151987 0.0937075 -0.00272124 -0.00279913 0.0978858 -0.00545623 0.00244252 0.0694395 0.00439713 -0.00151992 0.0653911 -0.00218966 -0.0027837 0.0694246 -0.0043844 0.00339474 0.0921464 0.00714193 0.00340834 0.0638562 0.00572925 0.00684731 0.0948979 0.0143086 0.0068676 0.0665156 0.0114207 -0.00160268 0.0851236 -0.00272731 -0.00768465 0.0842756 -0.0143089 -0.00466396 0.0895426 -0.00882051 -0.00161999 0.0568391 -0.00213348 -0.00780495 0.0560502 -0.011181 -0.004699 0.0612787 -0.00702689 -0.00310393 0.0807013 -0.00547181 -0.0031732 0.052417 -0.00422083 -0.000172678 0.0894646 3.96048e-06 -0.000171343 0.0611933 4.21176e-06 0.00352831 0.0868419 0.00714838 0.00357124 0.0585756 0.00563716 -0.00915692 0.0897686 -0.0176747 -0.00922876 0.0615066 -0.014007 0.00275524 0.0807093 0.0054745 0.00281848 0.0524237 0.00423218 0.00734608 0.0842744 0.0143198 0.00747209 0.0560589 0.0111876 0.00881111 0.0897632 0.0176785 0.00889084 0.0615003 0.01402 -0.00719949 0.0948966 -0.0142939 -0.00721801 0.0665226 -0.0114249 0.00246581 0.132449 0.00651033 -0.00152979 0.128284 -0.00324476 -0.00281548 0.132442 -0.00649744 0.00340605 0.126724 0.00851417 0.00688095 0.129449 0.0170351 -0.00160896 0.119718 -0.00324778 -0.00770027 0.118862 -0.0170311 -0.00468445 0.124123 -0.0105149 -0.00310801 0.115315 -0.0065055 -0.000176625 0.124049 4.08354e-06 0.00353424 0.121429 0.0085133 -0.00919276 0.124326 -0.0210511 0.00275058 0.115321 0.00650758 0.00735302 0.118862 0.017038 0.00883985 0.124322 0.0210565 -0.00723987 0.129448 -0.0170218 0.00247393 0.172791 0.00746703 -0.00153986 0.168608 -0.00372088 -0.00283638 0.172785 -0.00745209 0.00340524 0.167038 0.00976243 0.00689493 0.169761 0.0195368 -0.00161099 0.160036 -0.00372473 -0.00768131 0.159165 -0.0195239 -0.00468898 0.164432 -0.0120563 -0.00309962 0.15564 -0.00745872 -0.000182834 0.164366 4.04948e-06 0.0035203 0.161741 0.00975979 -0.00919457 0.164618 -0.0241349 0.00273048 0.155646 0.00745809 0.00732115 0.159165 0.0195295 0.00882901 0.164614 0.02414 -0.00726619 0.16976 -0.0195212 0.00247815 0.218348 0.00833149 -0.00155187 0.214155 -0.00415237 -0.00285783 0.218342 -0.00831419 0.00340298 0.212579 0.0108938 0.00690892 0.215294 0.0217978 -0.00161632 0.205581 -0.00415733 -0.00767211 0.204696 -0.0217877 -0.00469849 0.209967 -0.0134545 -0.00309617 0.201195 -0.00832447 -0.000191292 0.209907 4.05808e-06 0.00350728 0.20728 0.0108906 -0.00920587 0.210135 -0.026931 0.00271035 0.201201 0.0083216 0.00729452 0.204697 0.0217921 0.00882345 0.210131 0.0269362 -0.00729639 0.215293 -0.0217812 0.00248069 0.268622 0.00910924 -0.001566 0.264418 -0.00454025 -0.00288141 0.268617 -0.00909 0.00339897 0.262835 0.0119109 0.00692037 0.265544 0.0238321 -0.00162362 0.255843 -0.00454628 -0.00766407 0.254944 -0.0238216 -0.00470988 0.260219 -0.0147114 -0.00309452 0.251467 -0.009102 -0.000201662 0.260166 4.05645e-06 0.0034922 0.257536 0.0119073 -0.00921801 0.26037 -0.0294444 0.00268832 0.251471 0.00909724 0.0072652 0.254945 0.0238246 0.00881481 0.260366 0.0294496 -0.00732811 0.265544 -0.0238142 0.00248101 0.323115 0.00980149 -0.00158164 0.318901 -0.00488559 -0.00290622 0.32311 -0.00978049 0.00339286 0.317311 0.0128164 0.0069294 0.320014 0.0256425 -0.00163266 0.310324 -0.00489244 -0.00765828 0.309412 -0.0256322 -0.00472279 0.314691 -0.0158302 -0.00309491 0.305957 -0.00979422 -0.000213762 0.314643 4.05721e-06 0.00347542 0.31201 0.0128121 -0.00923181 0.314824 -0.0316816 0.00266485 0.305961 0.00978774 0.0072347 0.309412 0.0256341 0.0088044 0.314821 0.031687 -0.00736082 0.320013 -0.0256237 0.00247943 0.381341 0.0104107 -0.00159869 0.377117 -0.00518953 -0.00293214 0.381337 -0.0103882 0.00338507 0.375521 0.0136134 0.00693621 0.378218 0.027236 -0.00164331 0.368539 -0.00519715 -0.0076545 0.367614 -0.0272257 -0.00473719 0.372897 -0.0168151 -0.00309716 0.364181 -0.0104034 -0.000227366 0.372855 4.05736e-06 0.00345727 0.37022 0.0136087 -0.00924699 0.373013 -0.0336506 0.0026402 0.364185 0.0103955 0.00720322 0.367615 0.0272266 0.00879235 0.37301 0.0336561 -0.00739435 0.378218 -0.0272163 0.00247604 0.442833 0.0109399 -0.00161689 0.438599 -0.00545357 -0.00295886 0.442829 -0.0109161 0.00337571 0.436997 0.0143057 0.00694086 0.439688 0.02862 -0.00165537 0.43002 -0.00546183 -0.00765266 0.429083 -0.0286099 -0.00475283 0.434369 -0.0176706 -0.00310114 0.42567 -0.0109326 -0.000242279 0.434333 4.05764e-06 0.00343797 0.431695 0.0143006 -0.00926335 0.434469 -0.0353609 0.00261467 0.425674 0.0109234 0.00717107 0.429083 0.0286098 0.00877888 0.434467 0.0353665 -0.00742836 0.439687 -0.0285996 0.00247098 0.507138 0.0113925 -0.00163605 0.502895 -0.00567942 -0.00298612 0.507135 -0.0113675 0.00336495 0.501287 0.0148979 0.00694342 0.503972 0.0298037 -0.00166867 0.494314 -0.00568824 -0.00765268 0.493366 -0.0297937 -0.00476951 0.498655 -0.0184023 -0.00310674 0.489974 -0.0113851 -0.000258307 0.498625 4.05786e-06 0.00341774 0.495984 0.0148924 -0.0092807 0.49874 -0.0368236 0.0025885 0.489976 0.0113749 0.00713858 0.493366 0.0297928 0.00876416 0.498738 0.0368293 -0.00746252 0.503972 -0.0297828 0.00246434 0.573827 0.0117725 -0.00165596 0.569576 -0.00586907 -0.00301366 0.573825 -0.0117465 0.00335293 0.567963 0.0153951 0.00694394 0.570642 0.0307975 -0.00168306 0.560994 -0.00587835 -0.00765451 0.560034 -0.0307875 -0.00478708 0.565327 -0.0190168 -0.00311385 0.556661 -0.0117651 -0.000275274 0.565301 4.05806e-06 0.00339679 0.562659 0.0153894 -0.00929887 0.565397 -0.0380516 0.00256196 0.556663 0.0117539 0.00710605 0.560034 0.030786 0.00874838 0.565396 0.0380575 -0.00749656 0.570642 -0.0307761 0.0024562 0.642496 0.0120844 -0.00167643 0.638236 -0.00602479 -0.00304124 0.642494 -0.0120576 0.00333978 0.636618 0.0158034 0.00694245 0.639292 0.0316132 -0.00169839 0.629653 -0.00603444 -0.00765812 0.628683 -0.0316034 -0.00480535 0.633978 -0.0195213 -0.0031224 0.625328 -0.0120769 -0.000293014 0.633958 4.05825e-06 0.00337532 0.631313 0.0157974 -0.00931768 0.634036 -0.0390596 0.00253529 0.625329 0.0120651 0.00707378 0.628683 0.0316013 0.0087317 0.634034 0.0390656 -0.00753016 0.639292 -0.0315915 0.00244664 0.712765 0.0123334 -0.00169729 0.708498 -0.00614913 -0.00306861 0.712764 -0.012306 0.00332562 0.706875 0.0161294 0.00693897 0.709545 0.0322643 -0.00171454 0.699914 -0.00615907 -0.00766348 0.698935 -0.0322546 -0.00482418 0.704233 -0.0199242 -0.00313232 0.695596 -0.0123258 -0.000311374 0.704217 4.05841e-06 0.00335352 0.70157 0.0161233 -0.00933699 0.704278 -0.0398642 0.00250872 0.695597 0.0123135 0.00704206 0.698935 0.032252 0.00871427 0.704277 0.0398704 -0.00756303 0.709545 -0.0322423 0.00243571 0.78429 0.0125251 -0.00171838 0.780016 -0.00624494 -0.00309556 0.784289 -0.0124972 0.00331054 0.778389 0.0163806 0.0069335 0.781055 0.0327656 -0.00173138 0.771432 -0.00625511 -0.00767061 0.770444 -0.0327561 -0.00484344 0.775744 -0.0202346 -0.00314356 0.767119 -0.0125175 -0.000330217 0.775732 4.05855e-06 0.00333157 0.773083 0.0163743 -0.00935665 0.775778 -0.0404837 0.00248248 0.76712 0.0125048 0.00701117 0.770444 0.032753 0.00869624 0.775777 0.0404901 -0.00759492 0.781055 -0.0327435 0.00242344 0.856757 0.0126659 -0.00173956 0.852478 -0.00631537 -0.00312186 0.856757 -0.0126376 0.00329463 0.850847 0.0165653 0.00692601 0.85351 0.0331338 -0.00174883 0.843893 -0.0063257 -0.0076795 0.842898 -0.0331245 -0.00486299 0.8482 -0.0204628 -0.00315608 0.839586 -0.0126583 -0.000349421 0.848191 4.05867e-06 0.00330964 0.845541 0.0165589 -0.00937655 0.848224 -0.0409386 0.00245678 0.839587 0.0126453 0.00698137 0.842898 0.033121 0.00867772 0.848223 0.0409453 -0.00762555 0.85351 -0.0331117 0.00240985 0.929895 0.0127628 -0.00176068 0.92561 -0.00636388 -0.00314733 0.929894 -0.0127341 0.00327795 0.923977 0.0166924 0.00691646 0.926636 0.0333869 -0.0017668 0.917025 -0.00637432 -0.00769021 0.916023 -0.0333778 -0.00488273 0.921327 -0.0206199 -0.00316986 0.912722 -0.012755 -0.000368879 0.921321 4.05876e-06 0.00328785 0.91867 0.016686 -0.00939657 0.921343 -0.0412514 0.00243181 0.912723 0.0127419 0.00695291 0.916023 0.0333739 0.00865883 0.921342 0.0412583 -0.00765468 0.926636 -0.0333648 0.00239495 1.00347 0.0128232 -0.00178164 0.999181 -0.00639423 -0.00317179 1.00347 -0.0127943 0.00326056 0.997545 0.016772 0.0069048 1.0002 0.0335447 -0.00178521 0.990595 -0.00640475 -0.00770277 0.989588 -0.0335358 -0.00490257 0.994893 -0.0207183 -0.00318492 0.986296 -0.0128153 -0.000388502 0.99489 4.05884e-06 0.00326635 0.992238 0.0167655 -0.00941664 0.994903 -0.0414464 0.00240774 0.986296 0.0128021 0.00692603 0.989588 0.0335317 0.00863964 0.994902 0.0414535 -0.00768207 1.0002 -0.0335228 0.0023787 1.07729 0.0128553 -0.00180234 1.073 -0.00641051 -0.00319507 1.07729 -0.0128263 0.00324249 1.07136 0.0168147 0.00689094 1.07402 0.0336286 -0.00180405 1.06442 -0.00642106 -0.00771728 1.06341 -0.0336199 -0.00492245 1.06871 -0.020771 -0.00320126 1.06012 -0.0128474 -0.00040822 1.06871 4.05889e-06 0.00324525 1.06606 0.0168082 -0.00943667 1.06872 -0.0415501 0.00238474 1.06012 0.0128342 0.00690096 1.06341 0.0336155 0.00862024 1.06872 0.0415575 -0.0077075 1.07402 -0.0336069 0.0023611 1.15123 0.0128681 -0.00182271 1.14694 -0.00641712 -0.00321705 1.15123 -0.0128389 0.00322375 1.1453 0.016832 0.00687483 1.14795 0.0336616 -0.00182325 1.13835 -0.00642769 -0.00773379 1.13734 -0.0336532 -0.0049423 1.14265 -0.0207924 -0.00321892 1.13406 -0.01286 -0.000427979 1.14264 4.05893e-06 0.00322461 1.13999 0.0168255 -0.00945662 1.14265 -0.0415908 0.00236294 1.13406 0.0128469 0.00687786 1.13734 0.0336485 0.00860066 1.14265 0.0415986 -0.00773081 1.14795 -0.0336401 0.00234206 1.22519 0.0128708 -0.00184269 1.2209 -0.00641866 -0.00323755 1.22519 -0.0128416 0.00320432 1.21926 0.0168361 0.00685627 1.22191 0.0336686 -0.00184284 1.21231 -0.00642924 -0.00775247 1.2113 -0.0336604 -0.0049621 1.21661 -0.0207974 -0.00323799 1.20802 -0.0128627 -0.000447749 1.21661 4.05894e-06 0.00320456 1.21395 0.0168295 -0.00947645 1.21661 -0.0415995 0.00234249 1.20802 0.0128497 0.00685698 1.2113 0.0336555 0.00858095 1.21661 0.0416075 -0.00775177 1.22191 -0.0336473 0.00303125 0.0344117 0.00312622 -0.00176875 0.0338246 -0.0015079 -0.00338232 0.0343914 -0.00312805 0.00401055 0.0335779 0.00388565 0.00815121 0.0340877 0.00804919 -0.00181117 0.031891 -0.00139632 -0.008771 0.0318786 -0.00733809 -0.00537994 0.0330501 -0.0046674 -0.00351267 0.0307485 -0.00272792 -0.000175036 0.032969 4.32193e-06 0.00407514 0.0323826 0.00372069 -0.0105889 0.033253 -0.00943041 0.003153 0.0307482 0.0027487 0.00842938 0.0318886 0.007345 0.0102498 0.0332625 0.00942907 -0.00850868 0.0341089 -0.00802232 -0.00208702 0.00793453 -0.000330304 -0.01021 0.00794558 -0.00171093 -0.00398841 0.00781908 -0.00067823 -0.000170055 0.00817492 5.93281e-06 0.00484623 0.00801789 0.000843867 0.00364539 0.0078075 0.000682504 0.00986228 0.00795471 0.00169563 0.00243405 -0.0694542 -0.00440605 -0.00152998 -0.0654038 0.00218236 -0.00279472 -0.0694392 0.00437538 0.00244153 -0.0979052 -0.00547484 -0.00153775 -0.0937196 0.00271346 -0.0028176 -0.0978997 0.00544616 0.00339989 -0.0638682 -0.00573586 0.00337929 -0.0921578 -0.00714865 0.00686132 -0.0665289 -0.0114283 0.00683336 -0.0949105 -0.0143165 -0.00163043 -0.0568479 0.00212963 -0.00781803 -0.0560587 0.0111773 -0.00471089 -0.0612895 0.00702107 -0.00162048 -0.0851318 0.00272388 -0.00770506 -0.0842835 0.0143058 -0.00468309 -0.0895528 0.00881483 -0.00318432 -0.052424 0.00421873 -0.0031224 -0.0807077 0.0054705 -0.000181057 -0.0612041 -9.82951e-06 -0.000189858 -0.0894747 -9.48213e-06 0.003563 -0.0585852 -0.00564151 0.00351279 -0.0868508 -0.00715244 -0.00924264 -0.0615173 0.014001 -0.00917802 -0.0897787 0.0176689 0.0028098 -0.0524307 -0.00423409 0.00273926 -0.0807155 -0.0054756 0.00746556 -0.0560673 -0.0111907 0.00733218 -0.0842822 -0.0143224 0.00888534 -0.061511 -0.0140252 0.00879797 -0.0897734 -0.0176837 -0.00723103 -0.0665356 0.0114169 -0.00721989 -0.094909 0.0142855 0.00244092 -0.132463 -0.00652092 -0.00155649 -0.128296 0.0032366 -0.00284287 -0.132455 0.00648667 0.00338158 -0.126735 -0.00852118 0.00685815 -0.129461 -0.0170436 -0.00163567 -0.119726 0.00324476 -0.00772959 -0.118869 0.0170285 -0.00471253 -0.124132 0.0105092 -0.00313539 -0.11532 0.00650501 -0.000202699 -0.124059 -9.63036e-06 0.00350979 -0.121437 -0.00851713 -0.00922282 -0.124336 0.0210453 0.00272569 -0.115327 -0.00650788 0.00733022 -0.118869 -0.0170402 0.00881787 -0.124331 -0.0210617 -0.0072692 -0.12946 0.0170129 0.00243872 -0.172804 -0.00747835 -0.00157691 -0.168619 0.00371236 -0.00287408 -0.172798 0.00744058 0.00337047 -0.167049 -0.00976966 0.00686179 -0.169772 -0.0195457 -0.00164803 -0.160044 0.00372208 -0.00772096 -0.159172 0.0195217 -0.00472739 -0.164441 0.0120506 -0.00313733 -0.155645 0.00745896 -0.000219241 -0.164375 -9.59269e-06 0.00348553 -0.161749 -0.00976341 -0.00923495 -0.164627 0.0241291 0.00269527 -0.155651 -0.00745767 0.00728801 -0.159172 -0.0195312 0.00879667 -0.164623 -0.0241453 -0.00730584 -0.169772 0.0195118 0.00243133 -0.21836 -0.00834347 -0.00160053 -0.214165 0.00414353 -0.00290714 -0.218354 0.00830203 0.00335659 -0.212589 -0.0109012 0.00686417 -0.215305 -0.0218072 -0.00166498 -0.205588 0.00415501 -0.00772339 -0.204703 0.021786 -0.00474852 -0.209976 0.0134488 -0.00314549 -0.2012 0.00832536 -0.000239315 -0.209916 -9.60201e-06 0.00346089 -0.207287 -0.010894 -0.00925788 -0.210144 0.0269251 0.00266353 -0.201206 -0.00832053 0.00724977 -0.204703 -0.0217933 0.0087795 -0.21014 -0.0269415 -0.00734766 -0.215304 0.0217714 0.00242109 -0.268634 -0.00912182 -0.00162744 -0.264428 0.00453111 -0.00294351 -0.268629 0.00907726 0.0033398 -0.262845 -0.0119186 0.00686283 -0.265555 -0.0238418 -0.00168506 -0.255849 0.00454425 -0.00772813 -0.25495 0.0238203 -0.00477269 -0.260227 0.0147057 -0.00315661 -0.251471 0.00910349 -0.000262468 -0.260174 -9.60092e-06 0.00343302 -0.257542 -0.0119105 -0.00928281 -0.260378 0.0294386 0.00262872 -0.251476 -0.00909558 0.00720766 -0.25495 -0.0238255 0.00875808 -0.260374 -0.0294549 -0.00739217 -0.265554 0.0238041 0.00240758 -0.323126 -0.0098146 -0.0016569 -0.31891 0.00487618 -0.00298214 -0.323122 0.00976722 0.00331986 -0.31732 -0.0128242 0.00685804 -0.320024 -0.0256526 -0.00170792 -0.310329 0.00489067 -0.00773617 -0.309417 0.0256312 -0.00479943 -0.314698 0.0158246 -0.00317083 -0.305961 0.00979624 -0.000288393 -0.314651 -9.60203e-06 0.00340242 -0.312017 -0.0128152 -0.00931044 -0.314831 0.0316758 0.00259142 -0.305965 -0.00978557 0.00716334 -0.309417 -0.0256347 0.00873383 -0.314828 -0.0316922 -0.00743871 -0.320023 0.0256132 0.00239126 -0.381352 -0.0104243 -0.0016887 -0.377126 0.00517989 -0.0030228 -0.381348 0.0103745 0.00329732 -0.37553 -0.0136213 0.0068501 -0.378227 -0.0272463 -0.00173332 -0.368544 0.00519561 -0.00774713 -0.367619 0.027225 -0.00482858 -0.372904 0.0168094 -0.00318782 -0.364184 0.0104059 -0.000316745 -0.372863 -9.60256e-06 0.00336953 -0.370226 -0.0136116 -0.00934037 -0.37302 0.0336448 0.00255204 -0.364188 -0.0103928 0.00711711 -0.367619 -0.0272269 0.00870704 -0.373018 -0.0336614 -0.00748699 -0.378227 0.0272055 0.00237233 -0.442843 -0.0109539 -0.00172246 -0.438608 0.00544373 -0.00306507 -0.44284 0.0109019 0.00327241 -0.437005 -0.0143138 0.00683919 -0.439697 -0.0286306 -0.00176093 -0.430024 0.0054605 -0.00776085 -0.429087 0.0286094 -0.00485977 -0.434375 0.0176649 -0.00320735 -0.425673 0.0109355 -0.000347213 -0.434339 -9.60318e-06 0.00333467 -0.4317 -0.0143034 -0.00937229 -0.434476 0.0353551 0.00251095 -0.425676 -0.0109203 0.00706941 -0.429087 -0.0286099 0.008678 -0.434473 -0.0353718 -0.00753655 -0.439697 0.0285886 0.00235102 -0.507148 -0.0114068 -0.00175786 -0.502903 0.00566941 -0.00310858 -0.507145 0.011353 0.0032454 -0.501295 -0.014906 0.0068255 -0.503981 -0.0298146 -0.00179049 -0.494319 0.00568708 -0.00777712 -0.49337 0.0297934 -0.00489271 -0.498661 0.0183967 -0.00322919 -0.489976 0.0113884 -0.000379494 -0.498631 -9.60371e-06 0.00329819 -0.495989 -0.0148951 -0.0094059 -0.498746 0.0368178 0.00246854 -0.489979 -0.0113715 0.00702066 -0.49337 -0.0297927 0.00864703 -0.498744 -0.0368346 -0.00758697 -0.503981 0.0297715 0.00232754 -0.573837 -0.0117871 -0.00179461 -0.569584 0.00585892 -0.00315296 -0.573835 0.0117318 0.00321654 -0.56797 -0.0154034 0.00680918 -0.570651 -0.0308085 -0.00182172 -0.560998 0.00587733 -0.0077958 -0.560038 0.0307875 -0.00492712 -0.565332 0.0190111 -0.00325315 -0.556663 0.0117686 -0.000413303 -0.565307 -9.60419e-06 0.00326039 -0.562663 -0.015392 -0.00944091 -0.565403 0.0380459 0.00242516 -0.556665 -0.0117503 0.00697129 -0.560038 -0.0307857 0.0086144 -0.565401 -0.0380628 -0.00763784 -0.57065 0.0307647 0.00230207 -0.642505 -0.0120993 -0.00183242 -0.638243 0.00601452 -0.00319786 -0.642503 0.0120426 0.00318606 -0.636624 -0.0158117 0.00679036 -0.6393 -0.0316244 -0.00185438 -0.629657 0.00603354 -0.00781674 -0.628686 0.0316035 -0.00496273 -0.633984 0.0195157 -0.00327903 -0.625329 0.0120807 -0.000448375 -0.633963 -9.60463e-06 0.00322159 -0.631317 -0.0158 -0.00947706 -0.634041 0.0390539 0.00238116 -0.625331 -0.0120612 0.00692169 -0.628686 -0.0316008 0.00858039 -0.63404 -0.039071 -0.00768878 -0.6393 0.0315799 0.00227478 -0.712774 -0.0123484 -0.00187101 -0.708505 0.00613877 -0.00324296 -0.712772 0.0122908 0.00315416 -0.706882 -0.0161378 0.00676915 -0.709553 -0.0322755 -0.00188826 -0.699917 0.00615827 -0.00783984 -0.698938 0.0322548 -0.00499929 -0.704238 0.0199185 -0.00330667 -0.695597 0.0123298 -0.000484465 -0.704222 -9.60501e-06 0.00318206 -0.701574 -0.0161258 -0.0095141 -0.704283 0.0398584 0.00233686 -0.695598 -0.0123094 0.00687224 -0.698938 -0.0322514 0.00854523 -0.704282 -0.0398757 -0.00773939 -0.709553 0.0322307 0.00224581 -0.784298 -0.0125403 -0.00191014 -0.780023 0.0062345 -0.00328794 -0.784297 0.0124818 0.00312104 -0.778395 -0.0163891 0.00674563 -0.781062 -0.032777 -0.00192314 -0.771434 0.00625438 -0.007865 -0.770446 0.0327564 -0.00503658 -0.775749 0.0202289 -0.00333595 -0.76712 0.0125216 -0.000521349 -0.775737 -9.60535e-06 0.00314207 -0.773087 -0.0163768 -0.00955181 -0.775782 0.0404779 0.00229259 -0.767121 -0.0125005 0.0068233 -0.770446 -0.0327524 0.00850915 -0.775782 -0.0404954 -0.00778931 -0.781062 0.0327318 0.00221527 -0.856765 -0.0126812 -0.00194959 -0.852484 0.00630488 -0.00333252 -0.856765 0.0126221 0.00308685 -0.850853 -0.0165737 0.00671986 -0.853516 -0.0331452 -0.00195886 -0.843895 0.00632503 -0.00789217 -0.8429 0.0331248 -0.00507441 -0.848204 0.0204571 -0.00336674 -0.839586 0.0126625 -0.000558828 -0.848195 -9.60563e-06 0.00310186 -0.845544 -0.0165613 -0.00958998 -0.848228 0.0409328 0.00224861 -0.839587 -0.0126409 0.00677523 -0.8429 -0.0331203 0.00847236 -0.848228 -0.0409506 -0.00783822 -0.853516 0.0330999 0.00218324 -0.929902 -0.0127781 -0.00198915 -0.925616 0.00635335 -0.00337643 -0.929902 0.0127186 0.00305174 -0.923982 -0.0167009 0.00669187 -0.926642 -0.0333983 -0.00199527 -0.917027 0.00637369 -0.00792132 -0.916025 0.0333782 -0.00511259 -0.921331 0.0206143 -0.00339896 -0.912722 0.0127593 -0.000596728 -0.921325 -9.60586e-06 0.00306163 -0.918673 -0.0166884 -0.00962845 -0.921347 0.0412456 0.0022052 -0.912723 -0.0127374 0.00672833 -0.916025 -0.0333732 0.00843502 -