<VTKFile type="UnstructuredGrid" version="1.0" byte_order="LittleEndian" header_type="UInt64">
  <UnstructuredGrid>
    <Piece NumberOfPoints="791" NumberOfCells="973">
      <PointData>
        <DataArray type="Float32" Name="displacement" NumberOfComponents="3" format="ascii" RangeMin="0" RangeMax="1.260729399">
          0.00080207397696 -0.00015824199363 0.0001812690025 0.0005696649896 -5.7228000514e-05 0.00015165600053
          0.00042372799362 -0.00010209200263 0.00023007999698 -4.8802098718e-06 -0.00019383200561 0.00012129999959
          -0.00081304897321 -0.0001607919985 0.00018355700013 -0.0004352350079 -0.00010671599739 0.00023130400223
          -0.00057760498021 -5.7320499764e-05 0.00015505599731 0.000800386013 4.0996801545e-06 0.00021042500157
          0.0008343430236 0.00012057500135 0.00024492800003 0.00033802300459 0.00010774099792 0.00022643400007
          -3.5889399896e-06 3.1877898437e-05 0.00011876699864 -0.00083819497377 0.00011989299674 0.00024134499836
          -0.00080855301348 1.9976600925e-06 0.00021238200134 -0.00034486700315 0.0001078819987 0.00022516600438
          0.00086464500055 -0.00030082798912 0.00027647201205 0.00033033199725 -0.00026276201243 0.00020041500102
          -0.00087962602265 -0.00030578201404 0.00027838698588 -0.00034267400042 -0.00026596200769 0.00019976400654
          6.4308202127e-05 -0.00015505999909 0.00034533199505 -3.7023401092e-06 0.00012213499576 0.00035452999873
          -7.2064998676e-05 -0.00016424000205 0.00033623399213 9.9341203168e-05 -0.00018432800425 0.00052805599989
          -0.00010307099728 -0.00019169900042 0.00052326597506 -0.00014073299826 2.3944699933e-05 0.00050705298781
          -6.7532700996e-06 -0.00028484899667 0.0002993119997 0.000125467006 3.6724100937e-05 0.00050314801047
          -4.1709599827e-06 -8.3309103502e-05 7.5534400821e-05 0.04479489848 -0.0003186929971 -0.028472699225
          0.044534798712 -6.885699986e-05 -0.020903199911 0.044811401516 6.7642999056e-05 -0.028480799869
          0.020134599879 -0.00030565899215 -0.024382399395 0.020087199286 -7.5189702329e-05 -0.018879199401
          0.020138900727 4.9804799346e-05 -0.024374000728 0.044415101409 -0.00020244299958 -0.018029399216
          0.020016500726 -0.00018804799765 -0.016764000058 0.04439580068 -0.00043828599155 -0.02271479927
          0.019859800115 -0.00041898599011 -0.020111899823 0.044490300119 -0.00016169500304 -0.0058531798422
          0.044348999858 -0.00042483699508 -0.0040619601496 0.04434959963 -0.00011610599904 -0.013380100019
          0.020240800455 -0.0001677399996 -0.0080661000684 0.020165100694 -0.00044379598694 -0.0067898198031
          0.020023800433 -0.00013671899796 -0.01338759996 0.044703599066 -0.00030165401404 0.0017177000409
          0.020597200841 -0.00031849899096 -0.0028603801038 0.044424399734 -0.00011395900219 -0.013379000127
          0.020098999143 -0.00011452299805 -0.013411699794 0.044384799898 -2.0406800104e-05 -0.0087298201397
          0.020116100088 -6.4798600761e-06 -0.010075500235 0.044146798551 -0.0001198309983 -0.013388800435
          0.019809899852 -0.00012947499636 -0.01335529983 0.044691901654 9.8115699075e-05 0.0017103999853
          0.020569900051 0.00010744199972 -0.0028518598992 0.044319398701 0.00022287400498 -0.0040596500039
          0.020132400095 0.00024250800197 -0.0067932400852 0.044127698988 -0.00010921699868 -0.013387399726
          0.019791699946 -9.3808797828e-05 -0.013351599686 0.044423598796 0.00018434399681 -0.022708699107
          0.019891899079 0.00016441800108 -0.020118100569 0.076846197248 -0.00030825100839 -0.032500300556
          0.076652698219 -7.3040202551e-05 -0.022947199643 0.076858900487 5.2917501307e-05 -0.032500799745
          0.076551601291 -0.00020073399355 -0.019302800298 0.076499700546 -0.00042073300574 -0.025210099295
          0.076657600701 -0.00015703300596 -0.0038527299184 0.076543100178 -0.00039016499068 -0.0015879600542
          0.076509401202 -0.00011475299834 -0.013401499949 0.076877102256 -0.00028106899117 0.0057163299061
          0.07657790184 -0.00011563800217 -0.013401299715 0.076555497944 -3.2647898479e-05 -0.0075013400055
          0.076321899891 -0.00011349599663 -0.013399899937 0.076862297952 7.3724397225e-05 0.0057123000734
          0.076514199376 0.00018399499822 -0.0015881300205 0.076301403344 -0.00011756100139 -0.013403699733
          0.076528698206 0.00016416799917 -0.025206599385 0.11616499722 -0.00029465099215 -0.036181401461
          0.1159799993 -8.2019003457e-05 -0.024778300896 0.11617799848 3.146490053e-05 -0.036183901131
          0.11588700116 -0.00019615799829 -0.020432500169 0.11584699899 -0.00039571299567 -0.027482099831
          0.1159799993 -0.00015698399511 -0.0020167299081 0.11587300152 -0.0003715470084 0.00068289000774
          0.11584799737 -0.00011936300143 -0.013396199793 0.11617600173 -0.00027062100708 0.0093851201236
          0.11590900272 -0.00011945800361 -0.013398000039 0.11588700116 -4.2803399992e-05 -0.0063651301898
          0.11567799747 -0.00011965099839 -0.013394700363 0.11616300046 5.6356500863e-05 0.0093800900504
          0.11584399641 0.00015719899966 0.00068057898898 0.11565700173 -0.00011961199925 -0.013399999589
          0.11587499827 0.00013204499555 -0.027475200593 0.16202500463 -0.00028555700555 -0.039520598948
          0.16186000407 -9.1834401246e-05 -0.026450699195 0.16203700006 1.0314600331e-05 -0.039521500468
          0.16177399457 -0.00019530000282 -0.021467600018 0.1617359966 -0.00037667999277 -0.029547899961
          0.16185900569 -0.00015850200725 -0.00034827098716 0.16176399589 -0.0003522610059 0.0027460500132
          0.16174000502 -0.00012518900621 -0.013398099691 0.16203700006 -0.00026049200096 0.012724599801
          0.1617950052 -0.00012523100304 -0.013399800286 0.16177399457 -5.5324100686e-05 -0.005335399881
          0.16158699989 -0.00012504900224 -0.013396300375 0.16202400625 3.4963501093e-05 0.012718900107
          0.16173499823 0.00012570600666 0.0027421400882 0.16156500578 -0.00012554100249 -0.013403800316
          0.16176399589 0.0001022150027 -0.029539799318 0.21381500363 -0.00027791599859 -0.04253090173
          0.21366800368 -0.00010356400162 -0.027955900878 0.21382799745 -1.2704400433e-05 -0.042531400919
          0.21359099448 -0.00019599100051 -0.022398900241 0.21355600655 -0.00035904199467 -0.031409300864
          0.21366800368 -0.00016180099919 0.001155039994 0.21358299255 -0.00033537499257 0.0046048299409
          0.21356099844 -0.00013262100401 -0.013398899697 0.21382799745 -0.0002525220043 0.01573190093
          0.21360999346 -0.00013272400247 -0.013401299715 0.2135899961 -6.9658402936e-05 -0.0044073001482
          0.21342499554 -0.00013259099796 -0.013396499678 0.21381500363 1.2434799828e-05 0.015725700185
          0.21355499327 9.3197697424e-05 0.0045993798412 0.21340200305 -0.00013300799765 -0.013405799866
          0.21358299255 7.0193797001e-05 -0.031399700791 0.27092400193 -0.00027222500648 -0.045216500759
          0.2707940042 -0.00011667900253 -0.029299300164 0.27093601227 -3.6877099774e-05 -0.045216400176
          0.27072399855 -0.00019840999448 -0.023229999468 0.27069199085 -0.00034359600977 -0.033070001751
          0.27079299092 -0.00016675199731 0.0024961999152 0.27072000504 -0.00032056999044 0.0062631601468
          0.27070000768 -0.00014168099733 -0.013399699703 0.27093601227 -0.00024643799406 0.018414899707
          0.27074199915 -0.0001417589956 -0.013402399607 0.27072399855 -8.5276500613e-05 -0.0035792400595
          0.27057901025 -0.00014162699517 -0.013396900147 0.27092298865 -1.1340700439e-05 0.018408300355
          0.27069199085 5.9709000197e-05 0.0062563498504 0.27055600286 -0.00014202200691 -0.013407899998
          0.27072000504 3.7327699829e-05 -0.033059101552 0.33274900913 -0.00026827599504 -0.047585498542
          0.33263599873 -0.00013104800018 -0.03048440069 0.33276098967 -6.1986298533e-05 -0.04758489877
          0.3325740099 -0.00020235100237 -0.023963199928 0.33254599571 -0.00033015900408 -0.034534901381
          0.33263599873 -0.00017316099547 0.0036792999599 0.33257201314 -0.00030777099892 0.0077259200625
          0.33255401254 -0.00015206499666 -0.013400400057 0.33276098967 -0.00024211700656 0.020781600848
          0.33259001374 -0.00015214200539 -0.01340350043 0.3325740099 -0.00010209099855 -0.0028488400858
          0.33245000243 -0.00015201700444 -0.013397400267 0.33274900913 -3.6052100768e-05 0.020774699748
          0.33254501224 2.5539100534e-05 0.0077178901993 0.33242499828 -0.0001523779938 -0.013409700245
          0.33257201314 3.7337999856e-06 -0.034522999078 0.39870899916 -0.00026600700221 -0.049647800624
          0.3986119926 -0.00014644500334 -0.031516298652 0.39871999621 -8.7748398073e-05 -0.049646701664
          0.39855700731 -0.00020769399998 -0.024601599202 0.39853200316 -0.00031873499393 -0.035810198635
          0.3986119926 -0.00018088199431 0.004709249828 0.39855799079 -0.00029695700505 0.0089992303401
          0.39854198694 -0.0001636280067 -0.013401200064 0.39871999621 -0.00023948500166 0.022841800004
          0.39857199788 -0.00016369800142 -0.013404600322 0.39855700731 -0.00011984499724 -0.0022130000871
          0.39845299721 -0.00016357999993 -0.013397799805 0.39870899916 -6.1435399402e-05 0.022834600881
          0.39853200316 -8.9671102614e-06 0.0089901397005 0.39842799306 -0.00016391200188 -0.013411300257
          0.39855900407 -3.0206299925e-05 -0.035797398537 0.46823999286 -0.00026534099015 -0.0514154993
          0.46815899014 -0.00016267799947 -0.032400801778 0.46825098991 -0.00011389599968 -0.05141390115
          0.46811100841 -0.00021430999914 -0.025148900226 0.46808901429 -0.00030931300716 -0.036903299391
          0.46815899014 -0.0001897750044 0.0055920598097 0.46811500192 -0.00028812201344 0.010090500116
          0.46810001135 -0.00017619199934 -0.013401799835 0.46825098991 -0.00023847499688 0.024607399479
          0.46812498569 -0.00017625700275 -0.01340549998 0.46811100841 -0.00013833399862 -0.0016680100234
          0.46802601218 -0.00017614700482 -0.013398200274 0.46823999286 -8.7218599219e-05 0.024599999189
          0.46808800101 -4.3476800784e-05 0.010080499575 0.46799999475 -0.00017644799664 -0.013412799686
          0.46811500192 -6.4179301262e-05 -0.036889698356 0.54080402851 -0.00026622699806 -0.0529027991
          0.54073798656 -0.00017956100055 -0.033145200461 0.54081499577 -0.00014016299974 -0.052900701761
          0.54069602489 -0.00022208799783 -0.025609500706 0.54067701101 -0.00030191001133 -0.03782299906
          0.54073798656 -0.00019970799622 0.0063348500989 0.54070299864 -0.00028127600672 0.011008599773
          0.54069000483 -0.00018960199668 -0.01340250019 0.54081499577 -0.00023903399415 0.02609279938
          0.54070901871 -0.0001896610047 -0.013406299986 0.54069602489 -0.00015735099441 -0.0012094799895
          0.54062902927 -0.00018955899577 -0.013398599811 0.54080402851 -0.00011313999858 0.026085300371
          0.54067599773 -7.7658201917e-05 0.010997800156 0.54060202837 -0.00018982999609 -0.013414099813
          0.54070299864 -9.7852600447e-05 -0.037808798254 0.61589199305 -0.00026862500818 -0.054126199335
          0.61583900452 -0.00019691299531 -0.033757600933 0.61590200663 -0.00016628899903 -0.054123699665
          0.61580401659 -0.00023093099298 -0.025988500565 0.61578702927 -0.0002965599997 -0.038579400629
          0.61583900452 -0.00021056599508 0.0069459099323 0.61581200361 -0.00027644800139 0.011763700284
          0.61580097675 -0.00020370900165 -0.013403099962 0.61590200663 -0.00024112900428 0.027314500883
          0.61581498384 -0.00020376300381 -0.013407099992 0.61580401659 -0.00017669799854 -0.00083229498705
          0.61575299501 -0.00020366899844 -0.01339900028 0.61589097977 -0.00013894299627 0.027307000011
          0.61578601599 -0.000111182002 0.01175209973 0.61572599411 -0.00020391000726 -0.013415199704
          0.61581200361 -0.0001309030049 -0.038564801216 0.69302600622 -0.00027251298889 -0.055104598403
          0.69298601151 -0.00021456899412 -0.034247700125 0.6930360198 -0.0001920210052 -0.05510180071
          0.69295698404 -0.00024075100373 -0.02629170008 0.69294202328 -0.00029331399128 -0.039184499532
          0.69298601151 -0.00022224200075 0.00743470015 0.69296699762 -0.00027368500014 0.012367499992
          0.69295698404 -0.00021837800159 -0.013403600082 0.6930360198 -0.00024473801022 0.028291400522
          0.69296699762 -0.00021842500428 -0.013407800347 0.69295698404 -0.00019618899387 -0.00053059798665
          0.69292098284 -0.00021834099607 -0.013399399817 0.69302600622 -0.00016437799786 0.02828389965
          0.69294202328 -0.00014372399892 0.012355400249 0.69289302826 -0.00021855199884 -0.013416100293
          0.69296699762 -0.0001630110055 -0.039169501513 0.7717679739 -0.00027788299485 -0.055859699845
          0.77174001932 -0.00023237100686 -0.034626100212 0.77177798748 -0.00021711799491 -0.055856399238
          0.77171599865 -0.0002514779917 -0.026525899768 0.77170300484 -0.00029224099126 -0.039651300758
          0.77174001932 -0.00023464500555 0.0078119798563 0.77172797918 -0.00027305001277 0.012833300047
          0.77171999216 -0.00023348399554 -0.013404100202 0.77177798748 -0.00024985699565 0.029045000672
          0.77172499895 -0.00023352500284 -0.013408400118 0.77171599865 -0.00021564800409 -0.00029775701114
          0.77169400454 -0.00023345000227 -0.013399800286 0.7717679739 -0.0001892040018 0.029037600383
          0.77170300484 -0.0001749679941 0.012820700184 0.77166599035 -0.00023363099899 -0.013416900299
          0.77172797918 -0.0001938649948 -0.039636101574 0.85172301531 -0.00028474300052 -0.056415300816
          0.85170400143 -0.0002501780109 -0.034904800355 0.85173302889 -0.00024134600244 -0.056411698461
          0.85168498755 -0.00026305500069 -0.026698399335 0.85167402029 -0.00029342900962 -0.039994798601
          0.85170400143 -0.00024769900483 0.0080897603184 0.85169899464 -0.00027462700382 0.013175999746
          0.85169100761 -0.00024891700014 -0.013404499739 0.85173201561 -0.00025649700547 0.029599400237
          0.85169297457 -0.00024895201204 -0.013408900239 0.85168498755 -0.00023491200409 -0.00012635000166
          0.85167497396 -0.00024888801272 -0.013400100172 0.85172301531 -0.00021319399821 0.029592199251
          0.85167402029 -0.00020460599626 0.013162899762 0.85164600611 -0.00024903801386 -0.013417599723
          0.85169899464 -0.00022316300601 -0.039979498833 0.93253999949 -0.00029311899561 -0.056798100471
          0.93253099918 -0.00026785800583 -0.035097099841 0.93255001307 -0.00026448600693 -0.05679409951
          0.93251502514 -0.00027543999022 -0.026817500591 0.93250501156 -0.00029697999707 -0.040231399238
          0.9325299859 -0.00026133999927 0.0082813398913 0.9325299859 -0.00027851300547 0.01341199968
          0.93252402544 -0.00026458100183 -0.013404799625 0.93255001307 -0.00026468699798 0.029981099069
          0.93252199888 -0.00026460998924 -0.013409299776 0.93251502514 -0.00025382998865 -8.1554298959e-06
          0.93251597881 -0.00026455699117 -0.013400400057 0.93253999949 -0.00023612899531 0.029974099249
          0.93250501156 -0.00023234299442 0.013398599811 0.93248599768 -0.00026467698626 -0.013418099843
          0.9325299859 -0.00025061398628 -0.040216200054 1.0139199495 -0.00030304898974 -0.057037398219
          1.0139199495 -0.00028529998963 -0.035217698663 1.0139299631 -0.00028633399052 -0.057032998651
          1.0139100552 -0.00028860400198 -0.026892200112 1.0139000416 -0.00030301598599 -0.040379200131
          1.0139199495 -0.00027552098618 0.0084013501182 1.0139299631 -0.00028482399648 0.013559400104
          1.0139199495 -0.0002803959942 -0.013405100442 1.0139299631 -0.00027446899912 0.030219400302
          1.0139199495 -0.00028041799669 -0.013409599662 1.0139100552 -0.00027226901148 6.5865096985e-05
          1.0139199495 -0.00028037698939 -0.013400600292 1.0139199495 -0.00025780999567 0.030212700367
          1.0139000416 -0.00025789698702 0.013545700349 1.013890028 -0.00028046799707 -0.013418500312
          1.0139299631 -0.00027594200219 -0.040364101529 1.0956300497 -0.00031459701131 -0.057165000588
          1.0956399441 -0.00030239901389 -0.035282600671 1.0956399441 -0.00030669299304 -0.057160299271
          1.0956300497 -0.0003025479964 -0.02693239972 1.0956200361 -0.00031168299029 -0.040458001196
          1.0956399441 -0.00029021600494 0.0084657603875 1.0956399441 -0.00029370101402 0.013638000004
          1.0956399441 -0.00029629800702 -0.013405299746 1.0956399441 -0.00028591000591 0.03034619987
          1.0956300497 -0.00029631200596 -0.013409799896 1.0956300497 -0.00029010200524 0.00010556600319
          1.0956399441 -0.00029628400807 -0.013400799595 1.0956300497 -0.00027804399724 0.030339900404
          1.0956200361 -0.00028099201154 0.013624000363 1.0956100225 -0.0002963450097 -0.013418699615
          1.0956399441 -0.00029887599521 -0.040443100035 1.177489996 -0.0003278189979 -0.057215601206
          1.1775000095 -0.00031908901292 -0.035309001803 1.1775000095 -0.00032541100518 -0.057210400701
          1.177489996 -0.00031725299777 -0.02694880031 1.1774799824 -0.00032310700044 -0.04048909992
          1.1775000095 -0.00030539600994 0.0084919100627 1.1775100231 -0.00030526600312 0.013669000007
          1.1775000095 -0.00031223800033 -0.013405400328 1.1775000095 -0.00029907000135 0.030396100134
          1.1775000095 -0.00031224501436 -0.013409899548 1.177489996 -0.00030724899261 0.00012167300156
          1.1775100231 -0.00031223098631 -0.013400999829 1.177489996 -0.00029667900526 0.030390199274
          1.1774799824 -0.00030140700983 0.013654699549 1.1774799824 -0.00031226000283 -0.013418899849
          1.1775100231 -0.00031920100446 -0.040474399924 1.2593899965 -0.00034285199945 -0.057226598263
          1.2594000101 -0.00033527999767 -0.035315200686 1.2594000101 -0.00034228299046 -0.057221200317
          1.2593899965 -0.00033279199852 -0.026952600107 1.2593899965 -0.00033754200558 -0.040495701134
          1.2594000101 -0.00032109298627 0.0084980102256 1.2594100237 -0.00031974801095 0.013675699942
          1.2594000101 -0.00032818500767 -0.01340549998 1.2594000101 -0.00031408900395 0.030406799167
          1.2594000101 -0.00032818698674 -0.013410000131 1.2593899965 -0.00032358700992 0.00012542199693
          1.2594100237 -0.00032818299951 -0.013400999829 1.2593899965 -0.00031352599035 0.030401099473
          1.2593899965 -0.00031884099008 0.013661299832 1.2593799829 -0.00032819199259 -0.013418899849
          1.2594100237 -0.0003366190067 -0.040481198579 -0.00064796098741 -0.00031686099828 -0.011358699761
          0.0014870699961 -6.4296698838e-05 -0.0090779997408 -0.00064941402525 7.3147202784e-05 -0.011361200362
          0.0022254800424 -0.00018523700419 -0.0081632900983 0.00081554998178 -0.00042149599176 -0.0094717498869
          0.005696719978 -0.00016704200243 -0.0045656198636 0.0061375200748 -0.000446629012 -0.0039875297807
          0.0035115799401 -0.0001303540048 -0.006751909852 0.008044780232 -0.00032614200609 -0.002470969921
          0.0035573600326 -0.00010700299754 -0.0067930100486 0.0048270099796 2.8370000109e-06 -0.0053838700987
          0.0033364898991 -0.00011248399824 -0.0066275699064 0.0080051897094 0.00012031199731 -0.0024514200632
          0.0061065298505 0.0002538250119 -0.0039763301611 0.003327179933 -9.4963797892e-05 -0.0066299899481
          0.00083882297622 0.00018542500038 -0.0094707198441 0.00072114099748 -0.00016297100228 0.00034574500751
          0.00096341100289 -0.00049591297284 0.0004095750046 0.0017338299658 -0.00034139500349 0.00010899300105
          -2.1172299967e-05 -8.7727603386e-05 0.0002837110078 0.00041155400686 5.9060501371e-05 0.00036610499956
          0.0016961899819 0.00015201700444 0.0001434750011 0.0009615800227 0.0003361570125 0.0004180019896
          -0.020145300776 -0.00027669800329 -0.02438060008 -0.020095100626 -4.934379831e-05 -0.018878400326
          -0.020145799965 7.8866301919e-05 -0.024373399094 -0.044805701822 -0.00028490700061 -0.028470499441
          -0.044542700052 -3.8104499254e-05 -0.020902300254 -0.044818200171 0.00010139300139 -0.028480499983
          -0.020027799532 -0.00016318999405 -0.016761900857 -0.044426500797 -0.00017287500668 -0.018026800826
          -0.019873799756 -0.0003922629985 -0.020108899102 -0.044409800321 -0.00040677000652 -0.022710900754
          -0.020248699933 -0.00014790600108 -0.0080651901662 -0.020168399438 -0.00042473600479 -0.0067904498428
          -0.020029399544 -0.00011339099729 -0.013386899605 -0.044498100877 -0.00013715699606 -0.0058523202315
          -0.044352501631 -0.00040095800068 -0.0040631098673 -0.044355098158 -8.8511296781e-05 -0.013380399905
          -0.020603999496 -0.00030194601277 -0.0028598399367 -0.044710300863 -0.00028023499181 0.0017180800205
          -0.020107900724 -9.1381800303e-05 -0.013410399668 -0.044433198869 -8.63594978e-05 -0.013377700001
          -0.020127600059 1.4650699995e-05 -0.010073400103 -0.044396299869 5.3249000302e-06 -0.0087272003293
          -0.019812000915 -0.00010637199739 -0.013356200419 -0.04414910078 -9.2080401373e-05 -0.013390500098
          -0.020580900833 0.0001240309939 -0.0028500300832 -0.044702801853 0.00011954300135 0.0017127400497
          -0.020146800205 0.00026161101414 -0.0067902700976 -0.044333498925 0.00024675799068 -0.0040557500906
          -0.019807100296 -7.034670125e-05 -0.013348399661 -0.044142998755 -8.1579200923e-05 -0.013382899575
          -0.019895499572 0.00019112600421 -0.020118100569 -0.044427201152 0.00021587099764 -0.022709999233
          -0.076857097447 -0.00026789598633 -0.032497800887 -0.076660700142 -3.5747598304e-05 -0.022946599871
          -0.076865896583 9.3292001111e-05 -0.032501000911 -0.076563201845 -0.0001645989978 -0.019299799576
          -0.076513901353 -0.00038266798947 -0.025205399841 -0.076665602624 -0.00012593499559 -0.0038519899826
          -0.076546698809 -0.00035976601066 -0.001589959953 -0.076515197754 -8.0504301877e-05 -0.013402299955
          -0.076884001493 -0.00025311199715 0.0057164998725 -0.076586902142 -8.1414000306e-05 -0.013399899937
          -0.076567098498 -3.3563699731e-07 -0.0074982899241 -0.076324403286 -7.9208599345e-05 -0.013402800076
          -0.076873399317 0.00010169499728 0.0057150600478 -0.07652849704 0.00021441500576 -0.001583329984
          -0.076316900551 -8.3238403022e-05 -0.013398099691 -0.076532498002 0.00020224599575 -0.025208799168
          -0.11617600173 -0.00024593700073 -0.036178801209 -0.11598800123 -3.6363700929e-05 -0.024777799845
          -0.11618600041 8.018220251e-05 -0.03618440032 -0.11589899659 -0.00015166999947 -0.020429100841
          -0.11586099863 -0.00034929200774 -0.027476700023 -0.11598899961 -0.00011752700084 -0.0020160800777
          -0.11587700248 -0.00033278099727 0.00068019202445 -0.11585400254 -7.6776203059e-05 -0.013397499919
          -0.11618299782 -0.00023429900466 0.0093850800768 -0.1159190014 -7.6892400102e-05 -0.013396699913
          -0.11589899659 -2.1414800813e-06 -0.0063616600819 -0.11568100005 -7.7000397141e-05 -0.013398500159
          -0.11617399752 9.2687099823e-05 0.0093832295388 -0.11585900187 0.0001959749934 0.00068620499223
          -0.11567299813 -7.6973999967e-05 -0.013393499888 -0.11587899923 0.00017847999698 -0.027478199452
          -0.16203600168 -0.00022688000172 -0.039517700672 -0.16186900437 -3.622370059e-05 -0.026450399309
          -0.16204500198 6.8997396738e-05 -0.039522398263 -0.16178700328 -0.0001408560056 -0.021463900805
          -0.16175100207 -0.00032030500006 -0.029541900381 -0.16186800599 -0.00010908999684 -0.00034772200161
          -0.1617680043 -0.00030354800401 0.0027427000459 -0.16174599528 -7.2646696935e-05 -0.013399800286
          -0.16204500198 -0.00021421299607 0.012724399567 -0.16180500388 -7.2707000072e-05 -0.013398500159
          -0.1617860049 -4.7074199756e-06 -0.005331560038 -0.16158999503 -7.2456903581e-05 -0.013400999829
          -0.16203600168 8.125200111e-05 0.012722400017 -0.16175100207 0.00017443099932 0.0027485201135
          -0.16158099473 -7.2947303124e-05 -0.013396499678 -0.1617680043 0.00015860100393 -0.029543500394
          -0.21382799745 -0.00020782700449 -0.042527899146 -0.21367700398 -3.6543598981e-05 -0.027955900878
          -0.21383699775 5.7389901485e-05 -0.042532600462 -0.21360400319 -0.00013014000433 -0.022394899279
          -0.2135719955 -0.00029126199661 -0.031402800232 -0.21367700398 -0.00010098199709 0.0011555099627
          -0.21358799934 -0.00027525701444 0.0046009100042 -0.21356900036 -6.8674402428e-05 -0.013400999829
          -0.21383599937 -0.00019483300275 0.015731500462 -0.21362100542 -6.8793902756e-05 -0.013399999589
          -0.21360400319 -7.6364503911e-06 -0.0044031199068 -0.21342900395 -6.8597597419e-05 -0.01340200007
          -0.21382799745 7.013209688e-05 0.015729499981 -0.21357099712 0.00015332599287 0.0046064201742
          -0.21341900527 -6.9016197813e-05 -0.013397700153 -0.21358899772 0.00013798500004 -0.031404100358
          -0.27093699574 -0.00018942399765 -0.045213300735 -0.27080398798 -3.6952998926e-05 -0.029299400747
          -0.27094501257 4.5927299652e-05 -0.045217800885 -0.27073800564 -0.00011985500169 -0.023225799203
          -0.27070900798 -0.00026311198599 -0.033062901348 -0.27080398798 -9.3227798061e-05 0.0024965899065
          -0.2707259953 -0.00024775101338 0.0062587200664 -0.2707079947 -6.5032101702e-05 -0.013402099721
          -0.27094501257 -0.00017604099412 0.018414400518 -0.27075299621 -6.5123997047e-05 -0.013401100412
          -0.27073800564 -1.055140001e-05 -0.0035747599322 -0.27058398724 -6.4936801209e-05 -0.013403099962
          -0.27093699574 5.9063600929e-05 0.018412400037 -0.27070900798 0.00013253699581 0.0062639899552
          -0.27057400346 -6.5332300437e-05 -0.013399099931 -0.2707259953 0.00011781999638 -0.033064100891
          -0.33276298642 -0.00017161600408 -0.04758220166 -0.33264699578 -3.7466601498e-05 -0.030484599993
          -0.33277100325 3.4676999348e-05 -0.047586500645 -0.33258900046 -0.00010994199693 -0.023958800361
          -0.33256301284 -0.00023582299764 -0.034527398646 -0.33264699578 -8.5782601673e-05 0.0036796301138
          -0.33257898688 -0.00022110099962 0.0077210199088 -0.33256301284 -6.1564096541e-05 -0.013403199613
          -0.33277100325 -0.00015786300355 0.020780999213 -0.33260300756 -6.1653401644e-05 -0.013402200304
          -0.33258900046 -1.3513499653e-05 -0.0028440998867 -0.3324559927 -6.1480197473e-05 -0.013404100202
          -0.33276298642 4.8208199587e-05 0.020779000595 -0.33256301284 0.0001122169997 0.0077260602266
          -0.33244401217 -6.1841601564e-05 -0.013400300406 -0.33257898688 9.8077798611e-05 -0.034528501332
          -0.39872398973 -0.00015448199701 -0.049644399434 -0.39862400293 -3.800219929e-05 -0.0315166004
          -0.39873200655 2.3778900868e-05 -0.049648601562 -0.39857301116 -0.00010042599752 -0.024597000331
          -0.39855000377 -0.00020954100182 -0.035802301019 -0.39862400293 -7.8644603491e-05 0.0047095199116
          -0.39856600761 -0.00019542999507 0.0089939301834 -0.39855200052 -5.8269299188e-05 -0.013404100202
          -0.39873099327 -0.00014036800712 0.022841000929 -0.39858600497 -5.835040065e-05 -0.013403199613
          -0.39857301116 -1.6410000171e-05 -0.0022080300841 -0.39846000075 -5.8190998971e-05 -0.013405100442
          -0.39872398973 3.7686200812e-05 0.022839099169 -0.39855000377 9.2565896921e-05 0.0089987600222
          -0.39844799042 -5.8523401094e-05 -0.013401400298 -0.39856699109 7.8994300566e-05 -0.03580339998
          -0.4682559967 -0.00013808600488 -0.051412001252 -0.46817201376 -3.8508700527e-05 -0.032401200384
          -0.46826401353 1.3361300262e-05 -0.051415998489 -0.46812799573 -9.131670231e-05 -0.025144100189
          -0.46810799837 -0.00018439500127 -0.036894999444 -0.46817201376 -7.1810500231e-05 0.0055922800675
          -0.46812400222 -0.00017087199376 0.010084900074 -0.46811100841 -5.5109601817e-05 -0.013405100442
          -0.46826300025 -0.00012362899724 0.024606600404 -0.46813899279 -5.5183798395e-05 -0.013404199854
          -0.46812799573 -1.9174300178e-05 -0.0016628500307 -0.46803298593 -5.5037999118e-05 -0.013405900449
          -0.4682559967 2.7631000194e-05 0.024604799226 -0.46810799837 7.3778399383e-05 0.010089499876
          -0.46801999211 -5.5340100516e-05 -0.013402399607 -0.46812400222 6.0744900111e-05 -0.036896098405
          -0.54082202911 -0.00012250599684 -0.052899200469 -0.54075199366 -3.8928599679e-05 -0.033145599067
          -0.54082798958 3.5596999624e-06 -0.052903000265 -0.54071497917 -8.2634702267e-05 -0.025604499504
          -0.54069697857 -0.00016053199943 -0.03781440109 -0.54075199366 -6.5282700234e-05 0.0063350298442
          -0.54071301222 -0.00014756800374 0.011002699845 -0.54070198536 -5.2060600865e-05 -0.013405900449
          -0.54082798958 -0.00010772499809 0.026091899723 -0.54072397947 -5.2127401432e-05 -0.01340499986
          -0.5407140255 -2.1730900698e-05 -0.0012041500304 -0.54063802958 -5.1995699323e-05 -0.013406700455
          -0.54082101583 1.8172100681e-05 0.026090199128 -0.54069697857 5.605430124e-05 0.011007100344
          -0.54062402248 -5.2267499996e-05 -0.013403300196 -0.54071301222 4.3530100811e-05 -0.037815500051
          -0.61590999365 -0.00010782900063 -0.054122500122 -0.61585497856 -3.9208698581e-05 -0.033758100122
          -0.615917027 -5.4909000937e-06 -0.054126098752 -0.61582297087 -7.4406001659e-05 -0.025983400643
          -0.61580902338 -0.0001381119946 -0.038570601493 -0.61585497856 -5.9068301198e-05 0.0069460500963
          -0.61582398415 -0.00012567099475 0.011757499538 -0.61581397057 -4.909819836e-05 -0.013406599872
          -0.615917027 -9.27459987e-05 0.027313500643 -0.61583197117 -4.9157799367e-05 -0.013405799866