<?xml version="1.0"?>
<!--Shaheen-->
<VTKFile type="UnstructuredGrid" version="0.1" byte_order="LittleEndian">
  <UnstructuredGrid>
    <Piece NumberOfPoints="791" NumberOfCells="973">
      <Points>
        <DataArray type="Float32" NumberOfComponents="3" format="ascii">
-0.190211 -0.0618034 -0.866203 -0.17591 0.0347644 -0.761951 -0.166717 -0.0910144 -0.722131 0 -0.0768927 -0.886453 0.190211 -0.0618034 -0.866203 0.166717 -0.0910144 -0.722131 0.17591 0.0347644 -0.761951 -0.190211 0.0618034 -0.866203 -0.181592 0.2 -0.786562 -0.117557 0.161803 -0.847614 0 0.0768927 -0.886453 0.181592 0.2 -0.786562 0.190211 0.0618034 -0.866203 0.117557 0.161803 -0.847614 -0.181592 -0.2 -0.786562 -0.117557 -0.161803 -0.847614 0.181592 -0.2 -0.786562 0.117557 -0.161803 -0.847614 -0.151842 0.1125 -0.6577 0 0.2 -0.792573 0.151842 0.1125 -0.6577 -0.151842 0.225 -0.6577 0.151842 0.225 -0.6577 0.151842 -0.225 -0.6577 0 -0.2 -0.792573 -0.151842 -0.225 -0.6577 0 -7.38343e-17 -0.9 0.888988 -0.0695288 0.4 0.781994 0.0347644 0.4 0.888988 0.0695288 0.4 0.888988 -0.0695288 2.2226e-15 0.781994 0.0347644 2.2357e-15 0.888988 0.0695288 2.2226e-15 0.741126 -0.0910144 0.4 0.741126 -0.0910144 2.24071e-15 0.807252 -0.182029 0.4 0.807252 -0.182029 2.23261e-15 0.568006 0.0347644 0.4 0.542748 0.182029 0.4 0.675 0.1125 0.4 0.568006 0.0347644 2.26191e-15 0.542748 0.182029 2.265e-15 0.675 0.1125 2.2488e-15 0.461012 0.0695288 0.4 0.461012 0.0695288 2.27501e-15 0.675 0 0.4 0.675 0 2.2488e-15 0.608874 -0.0910144 0.4 0.608874 -0.0910144 2.2569e-15 0.675 0.225 0.4 0.675 0.225 2.2488e-15 0.461012 -0.0695288 0.4 0.461012 -0.0695288 2.27501e-15 0.542748 -0.182029 0.4 0.542748 -0.182029 2.265e-15 0.675 -0.225 0.4 0.675 -0.225 2.2488e-15 0.807252 0.182029 0.4 0.807252 0.182029 2.23261e-15 0.888988 -0.0695288 0.8 0.781994 0.0347644 0.8 0.888988 0.0695288 0.8 0.741126 -0.0910144 0.8 0.807252 -0.182029 0.8 0.568006 0.0347644 0.8 0.542748 0.182029 0.8 0.675 0.1125 0.8 0.461012 0.0695288 0.8 0.675 0 0.8 0.608874 -0.0910144 0.8 0.675 0.225 0.8 0.461012 -0.0695288 0.8 0.542748 -0.182029 0.8 0.675 -0.225 0.8 0.807252 0.182029 0.8 0.888988 -0.0695288 1.2 0.781994 0.0347644 1.2 0.888988 0.0695288 1.2 0.741126 -0.0910144 1.2 0.807252 -0.182029 1.2 0.568006 0.0347644 1.2 0.542748 0.182029 1.2 0.675 0.1125 1.2 0.461012 0.0695288 1.2 0.675 0 1.2 0.608874 -0.0910144 1.2 0.675 0.225 1.2 0.461012 -0.0695288 1.2 0.542748 -0.182029 1.2 0.675 -0.225 1.2 0.807252 0.182029 1.2 0.888988 -0.0695288 1.6 0.781994 0.0347644 1.6 0.888988 0.0695288 1.6 0.741126 -0.0910144 1.6 0.807252 -0.182029 1.6 0.568006 0.0347644 1.6 0.542748 0.182029 1.6 0.675 0.1125 1.6 0.461012 0.0695288 1.6 0.675 0 1.6 0.608874 -0.0910144 1.6 0.675 0.225 1.6 0.461012 -0.0695288 1.6 0.542748 -0.182029 1.6 0.675 -0.225 1.6 0.807252 0.182029 1.6 0.888988 -0.0695288 2 0.781994 0.0347644 2 0.888988 0.0695288 2 0.741126 -0.0910144 2 0.807252 -0.182029 2 0.568006 0.0347644 2 0.542748 0.182029 2 0.675 0.1125 2 0.461012 0.0695288 2 0.675 0 2 0.608874 -0.0910144 2 0.675 0.225 2 0.461012 -0.0695288 2 0.542748 -0.182029 2 0.675 -0.225 2 0.807252 0.182029 2 0.888988 -0.0695288 2.4 0.781994 0.0347644 2.4 0.888988 0.0695288 2.4 0.741126 -0.0910144 2.4 0.807252 -0.182029 2.4 0.568006 0.0347644 2.4 0.542748 0.182029 2.4 0.675 0.1125 2.4 0.461012 0.0695288 2.4 0.675 0 2.4 0.608874 -0.0910144 2.4 0.675 0.225 2.4 0.461012 -0.0695288 2.4 0.542748 -0.182029 2.4 0.675 -0.225 2.4 0.807252 0.182029 2.4 0.888988 -0.0695288 2.8 0.781994 0.0347644 2.8 0.888988 0.0695288 2.8 0.741126 -0.0910144 2.8 0.807252 -0.182029 2.8 0.568006 0.0347644 2.8 0.542748 0.182029 2.8 0.675 0.1125 2.8 0.461012 0.0695288 2.8 0.675 0 2.8 0.608874 -0.0910144 2.8 0.675 0.225 2.8 0.461012 -0.0695288 2.8 0.542748 -0.182029 2.8 0.675 -0.225 2.8 0.807252 0.182029 2.8 0.888988 -0.0695288 3.2 0.781994 0.0347644 3.2 0.888988 0.0695288 3.2 0.741126 -0.0910144 3.2 0.807252 -0.182029 3.2 0.568006 0.0347644 3.2 0.542748 0.182029 3.2 0.675 0.1125 3.2 0.461012 0.0695288 3.2 0.675 0 3.2 0.608874 -0.0910144 3.2 0.675 0.225 3.2 0.461012 -0.0695288 3.2 0.542748 -0.182029 3.2 0.675 -0.225 3.2 0.807252 0.182029 3.2 0.888988 -0.0695288 3.6 0.781994 0.0347644 3.6 0.888988 0.0695288 3.6 0.741126 -0.0910144 3.6 0.807252 -0.182029 3.6 0.568006 0.0347644 3.6 0.542748 0.182029 3.6 0.675 0.1125 3.6 0.461012 0.0695288 3.6 0.675 0 3.6 0.608874 -0.0910144 3.6 0.675 0.225 3.6 0.461012 -0.0695288 3.6 0.542748 -0.182029 3.6 0.675 -0.225 3.6 0.807252 0.182029 3.6 0.888988 -0.0695288 4 0.781994 0.0347644 4 0.888988 0.0695288 4 0.741126 -0.0910144 4 0.807252 -0.182029 4 0.568006 0.0347644 4 0.542748 0.182029 4 0.675 0.1125 4 0.461012 0.0695288 4 0.675 0 4 0.608874 -0.0910144 4 0.675 0.225 4 0.461012 -0.0695288 4 0.542748 -0.182029 4 0.675 -0.225 4 0.807252 0.182029 4 0.888988 -0.0695288 4.4 0.781994 0.0347644 4.4 0.888988 0.0695288 4.4 0.741126 -0.0910144 4.4 0.807252 -0.182029 4.4 0.568006 0.0347644 4.4 0.542748 0.182029 4.4 0.675 0.1125 4.4 0.461012 0.0695288 4.4 0.675 0 4.4 0.608874 -0.0910144 4.4 0.675 0.225 4.4 0.461012 -0.0695288 4.4 0.542748 -0.182029 4.4 0.675 -0.225 4.4 0.807252 0.182029 4.4 0.888988 -0.0695288 4.8 0.781994 0.0347644 4.8 0.888988 0.0695288 4.8 0.741126 -0.0910144 4.8 0.807252 -0.182029 4.8 0.568006 0.0347644 4.8 0.542748 0.182029 4.8 0.675 0.1125 4.8 0.461012 0.0695288 4.8 0.675 0 4.8 0.608874 -0.0910144 4.8 0.675 0.225 4.8 0.461012 -0.0695288 4.8 0.542748 -0.182029 4.8 0.675 -0.225 4.8 0.807252 0.182029 4.8 0.888988 -0.0695288 5.2 0.781994 0.0347644 5.2 0.888988 0.0695288 5.2 0.741126 -0.0910144 5.2 0.807252 -0.182029 5.2 0.568006 0.0347644 5.2 0.542748 0.182029 5.2 0.675 0.1125 5.2 0.461012 0.0695288 5.2 0.675 0 5.2 0.608874 -0.0910144 5.2 0.675 0.225 5.2 0.461012 -0.0695288 5.2 0.542748 -0.182029 5.2 0.675 -0.225 5.2 0.807252 0.182029 5.2 0.888988 -0.0695288 5.6 0.781994 0.0347644 5.6 0.888988 0.0695288 5.6 0.741126 -0.0910144 5.6 0.807252 -0.182029 5.6 0.568006 0.0347644 5.6 0.542748 0.182029 5.6 0.675 0.1125 5.6 0.461012 0.0695288 5.6 0.675 0 5.6 0.608874 -0.0910144 5.6 0.675 0.225 5.6 0.461012 -0.0695288 5.6 0.542748 -0.182029 5.6 0.675 -0.225 5.6 0.807252 0.182029 5.6 0.888988 -0.0695288 6 0.781994 0.0347644 6 0.888988 0.0695288 6 0.741126 -0.0910144 6 0.807252 -0.182029 6 0.568006 0.0347644 6 0.542748 0.182029 6 0.675 0.1125 6 0.461012 0.0695288 6 0.675 0 6 0.608874 -0.0910144 6 0.675 0.225 6 0.461012 -0.0695288 6 0.542748 -0.182029 6 0.675 -0.225 6 0.807252 0.182029 6 0.888988 -0.0695288 6.4 0.781994 0.0347644 6.4 0.888988 0.0695288 6.4 0.741126 -0.0910144 6.4 0.807252 -0.182029 6.4 0.568006 0.0347644 6.4 0.542748 0.182029 6.4 0.675 0.1125 6.4 0.461012 0.0695288 6.4 0.675 0 6.4 0.608874 -0.0910144 6.4 0.675 0.225 6.4 0.461012 -0.0695288 6.4 0.542748 -0.182029 6.4 0.675 -0.225 6.4 0.807252 0.182029 6.4 0.888988 -0.0695288 6.8 0.781994 0.0347644 6.8 0.888988 0.0695288 6.8 0.741126 -0.0910144 6.8 0.807252 -0.182029 6.8 0.568006 0.0347644 6.8 0.542748 0.182029 6.8 0.675 0.1125 6.8 0.461012 0.0695288 6.8 0.675 0 6.8 0.608874 -0.0910144 6.8 0.675 0.225 6.8 0.461012 -0.0695288 6.8 0.542748 -0.182029 6.8 0.675 -0.225 6.8 0.807252 0.182029 6.8 0.888988 -0.0695288 7.2 0.781994 0.0347644 7.2 0.888988 0.0695288 7.2 0.741126 -0.0910144 7.2 0.807252 -0.182029 7.2 0.568006 0.0347644 7.2 0.542748 0.182029 7.2 0.675 0.1125 7.2 0.461012 0.0695288 7.2 0.675 0 7.2 0.608874 -0.0910144 7.2 0.675 0.225 7.2 0.461012 -0.0695288 7.2 0.542748 -0.182029 7.2 0.675 -0.225 7.2 0.807252 0.182029 7.2 0.888988 -0.0695288 7.6 0.781994 0.0347644 7.6 0.888988 0.0695288 7.6 0.741126 -0.0910144 7.6 0.807252 -0.182029 7.6 0.568006 0.0347644 7.6 0.542748 0.182029 7.6 0.675 0.1125 7.6 0.461012 0.0695288 7.6 0.675 0 7.6 0.608874 -0.0910144 7.6 0.675 0.225 7.6 0.461012 -0.0695288 7.6 0.542748 -0.182029 7.6 0.675 -0.225 7.6 0.807252 0.182029 7.6 0.695729 -0.0695288 -0.553408 0.611995 0.0347644 -0.486803 0.695729 0.0695288 -0.553408 0.580011 -0.0910144 -0.461362 0.631762 -0.182029 -0.502526 0.444526 0.0347644 -0.353592 0.424759 0.182029 -0.337869 0.528261 0.1125 -0.420197 0.360792 0.0695288 -0.286987 0.528261 0 -0.420197 0.47651 -0.0910144 -0.379033 0.528261 0.225 -0.420197 0.360792 -0.0695288 -0.286987 0.424759 -0.182029 -0.337869 0.528261 -0.225 -0.420197 0.631762 0.182029 -0.502526 0.127774 0.0347644 -0.553448 0.122092 0.182029 -0.528838 0.103705 0.0695288 -0.449197 0.151842 0 -0.6577 0.136967 -0.0910144 -0.593269 0.103705 -0.0695288 -0.449197 0.122092 -0.182029 -0.528838 -0.888988 -0.0695288 2.2226e-15 -0.781994 0.0347644 2.2357e-15 -0.888988 0.0695288 2.2226e-15 -0.888988 -0.0695288 0.4 -0.781994 0.0347644 0.4 -0.888988 0.0695288 0.4 -0.741126 -0.0910144 2.24071e-15 -0.741126 -0.0910144 0.4 -0.807252 -0.182029 2.23261e-15 -0.807252 -0.182029 0.4 -0.568006 0.0347644 2.26191e-15 -0.542748 0.182029 2.265e-15 -0.675 0.1125 2.2488e-15 -0.568006 0.0347644 0.4 -0.542748 0.182029 0.4 -0.675 0.1125 0.4 -0.461012 0.0695288 2.27501e-15 -0.461012 0.0695288 0.4 -0.675 0 2.2488e-15 -0.675 0 0.4 -0.608874 -0.0910144 2.2569e-15 -0.608874 -0.0910144 0.4 -0.675 0.225 2.2488e-15 -0.675 0.225 0.4 -0.461012 -0.0695288 2.27501e-15 -0.461012 -0.0695288 0.4 -0.542748 -0.182029 2.265e-15 -0.542748 -0.182029 0.4 -0.675 -0.225 2.2488e-15 -0.675 -0.225 0.4 -0.807252 0.182029 2.23261e-15 -0.807252 0.182029 0.4 -0.888988 -0.0695288 0.8 -0.781994 0.0347644 0.8 -0.888988 0.0695288 0.8 -0.741126 -0.0910144 0.8 -0.807252 -0.182029 0.8 -0.568006 0.0347644 0.8 -0.542748 0.182029 0.8 -0.675 0.1125 0.8 -0.461012 0.0695288 0.8 -0.675 0 0.8 -0.608874 -0.0910144 0.8 -0.675 0.225 0.8 -0.461012 -0.0695288 0.8 -0.542748 -0.182029 0.8 -0.675 -0.225 0.8 -0.807252 0.182029 0.8 -0.888988 -0.0695288 1.2 -0.781994 0.0347644 1.2 -0.888988 0.0695288 1.2 -0.741126 -0.0910144 1.2 -0.807252 -0.182029 1.2 -0.568006 0.0347644 1.2 -0.542748 0.182029 1.2 -0.675 0.1125 1.2 -0.461012 0.0695288 1.2 -0.675 0 1.2 -0.608874 -0.0910144 1.2 -0.675 0.225 1.2 -0.461012 -0.0695288 1.2 -0.542748 -0.182029 1.2 -0.675 -0.225 1.2 -0.807252 0.182029 1.2 -0.888988 -0.0695288 1.6 -0.78199
[...]
      <PointData>
        <DataArray type="Float32" Name="displacement" NumberOfComponents="3" format="ascii">
0.000802074 -0.000158242 0.000181269 0.000569665 -5.7228e-05 0.000151656 0.000423728 -0.000102092 0.00023008 -4.88021e-06 -0.000193832 0.0001213 -0.000813049 -0.000160792 0.000183557 -0.000435235 -0.000106716 0.000231304 -0.000577605 -5.73205e-05 0.000155056 0.000800386 4.09968e-06 0.000210425 0.000834343 0.000120575 0.000244928 0.000338023 0.000107741 0.000226434 -3.58894e-06 3.18779e-05 0.000118767 -0.000838195 0.000119893 0.000241345 -0.000808553 1.99766e-06 0.000212382 -0.000344867 0.000107882 0.000225166 0.000864645 -0.000300828 0.000276472 0.000330332 -0.000262762 0.000200415 -0.000879626 -0.000305782 0.000278387 -0.000342674 -0.000265962 0.000199764 6.43082e-05 -0.00015506 0.000345332 -3.70234e-06 0.000122135 0.00035453 -7.2065e-05 -0.00016424 0.000336234 9.93412e-05 -0.000184328 0.000528056 -0.000103071 -0.000191699 0.000523266 -0.000140733 2.39447e-05 0.000507053 -6.75327e-06 -0.000284849 0.000299312 0.000125467 3.67241e-05 0.000503148 -4.17096e-06 -8.33091e-05 7.55344e-05 0.0447949 -0.000318693 -0.0284727 0.0445348 -6.8857e-05 -0.0209032 0.0448114 6.7643e-05 -0.0284808 0.0201346 -0.000305659 -0.0243824 0.0200872 -7.51897e-05 -0.0188792 0.0201389 4.98048e-05 -0.024374 0.0444151 -0.000202443 -0.0180294 0.0200165 -0.000188048 -0.016764 0.0443958 -0.000438286 -0.0227148 0.0198598 -0.000418986 -0.0201119 0.0444903 -0.000161695 -0.00585318 0.044349 -0.000424837 -0.00406196 0.0443496 -0.000116106 -0.0133801 0.0202408 -0.00016774 -0.0080661 0.0201651 -0.000443796 -0.00678982 0.0200238 -0.000136719 -0.0133876 0.0447036 -0.000301654 0.0017177 0.0205972 -0.000318499 -0.00286038 0.0444244 -0.000113959 -0.013379 0.020099 -0.000114523 -0.0134117 0.0443848 -2.04068e-05 -0.00872982 0.0201161 -6.47986e-06 -0.0100755 0.0441468 -0.000119831 -0.0133888 0.0198099 -0.000129475 -0.0133553 0.0446919 9.81157e-05 0.0017104 0.0205699 0.000107442 -0.00285186 0.0443194 0.000222874 -0.00405965 0.0201324 0.000242508 -0.00679324 0.0441277 -0.000109217 -0.0133874 0.0197917 -9.38088e-05 -0.0133516 0.0444236 0.000184344 -0.0227087 0.0198919 0.000164418 -0.0201181 0.0768462 -0.000308251 -0.0325003 0.0766527 -7.30402e-05 -0.0229472 0.0768589 5.29175e-05 -0.0325008 0.0765516 -0.000200734 -0.0193028 0.0764997 -0.000420733 -0.0252101 0.0766576 -0.000157033 -0.00385273 0.0765431 -0.000390165 -0.00158796 0.0765094 -0.000114753 -0.0134015 0.0768771 -0.000281069 0.00571633 0.0765779 -0.000115638 -0.0134013 0.0765555 -3.26479e-05 -0.00750134 0.0763219 -0.000113496 -0.0133999 0.0768623 7.37244e-05 0.0057123 0.0765142 0.000183995 -0.00158813 0.0763014 -0.000117561 -0.0134037 0.0765287 0.000164168 -0.0252066 0.116165 -0.000294651 -0.0361814 0.11598 -8.2019e-05 -0.0247783 0.116178 3.14649e-05 -0.0361839 0.115887 -0.000196158 -0.0204325 0.115847 -0.000395713 -0.0274821 0.11598 -0.000156984 -0.00201673 0.115873 -0.000371547 0.00068289 0.115848 -0.000119363 -0.0133962 0.116176 -0.000270621 0.00938512 0.115909 -0.000119458 -0.013398 0.115887 -4.28034e-05 -0.00636513 0.115678 -0.000119651 -0.0133947 0.116163 5.63565e-05 0.00938009 0.115844 0.000157199 0.000680579 0.115657 -0.000119612 -0.0134 0.115875 0.000132045 -0.0274752 0.162025 -0.000285557 -0.0395206 0.16186 -9.18344e-05 -0.0264507 0.162037 1.03146e-05 -0.0395215 0.161774 -0.0001953 -0.0214676 0.161736 -0.00037668 -0.0295479 0.161859 -0.000158502 -0.000348271 0.161764 -0.000352261 0.00274605 0.16174 -0.000125189 -0.0133981 0.162037 -0.000260492 0.0127246 0.161795 -0.000125231 -0.0133998 0.161774 -5.53241e-05 -0.0053354 0.161587 -0.000125049 -0.0133963 0.162024 3.49635e-05 0.0127189 0.161735 0.000125706 0.00274214 0.161565 -0.000125541 -0.0134038 0.161764 0.000102215 -0.0295398 0.213815 -0.000277916 -0.0425309 0.213668 -0.000103564 -0.0279559 0.213828 -1.27044e-05 -0.0425314 0.213591 -0.000195991 -0.0223989 0.213556 -0.000359042 -0.0314093 0.213668 -0.000161801 0.00115504 0.213583 -0.000335375 0.00460483 0.213561 -0.000132621 -0.0133989 0.213828 -0.000252522 0.0157319 0.21361 -0.000132724 -0.0134013 0.21359 -6.96584e-05 -0.0044073 0.213425 -0.000132591 -0.0133965 0.213815 1.24348e-05 0.0157257 0.213555 9.31977e-05 0.00459938 0.213402 -0.000133008 -0.0134058 0.213583 7.01938e-05 -0.0313997 0.270924 -0.000272225 -0.0452165 0.270794 -0.000116679 -0.0292993 0.270936 -3.68771e-05 -0.0452164 0.270724 -0.00019841 -0.02323 0.270692 -0.000343596 -0.03307 0.270793 -0.000166752 0.0024962 0.27072 -0.00032057 0.00626316 0.2707 -0.000141681 -0.0133997 0.270936 -0.000246438 0.0184149 0.270742 -0.000141759 -0.0134024 0.270724 -8.52765e-05 -0.00357924 0.270579 -0.000141627 -0.0133969 0.270923 -1.13407e-05 0.0184083 0.270692 5.9709e-05 0.00625635 0.270556 -0.000142022 -0.0134079 0.27072 3.73277e-05 -0.0330591 0.332749 -0.000268276 -0.0475855 0.332636 -0.000131048 -0.0304844 0.332761 -6.19863e-05 -0.0475849 0.332574 -0.000202351 -0.0239632 0.332546 -0.000330159 -0.0345349 0.332636 -0.000173161 0.0036793 0.332572 -0.000307771 0.00772592 0.332554 -0.000152065 -0.0134004 0.332761 -0.000242117 0.0207816 0.33259 -0.000152142 -0.0134035 0.332574 -0.000102091 -0.00284884 0.33245 -0.000152017 -0.0133974 0.332749 -3.60521e-05 0.0207747 0.332545 2.55391e-05 0.00771789 0.332425 -0.000152378 -0.0134097 0.332572 3.7338e-06 -0.034523 0.398709 -0.000266007 -0.0496478 0.398612 -0.000146445 -0.0315163 0.39872 -8.77484e-05 -0.0496467 0.398557 -0.000207694 -0.0246016 0.398532 -0.000318735 -0.0358102 0.398612 -0.000180882 0.00470925 0.398558 -0.000296957 0.00899923 0.398542 -0.000163628 -0.0134012 0.39872 -0.000239485 0.0228418 0.398572 -0.000163698 -0.0134046 0.398557 -0.000119845 -0.002213 0.398453 -0.00016358 -0.0133978 0.398709 -6.14354e-05 0.0228346 0.398532 -8.96711e-06 0.00899014 0.398428 -0.000163912 -0.0134113 0.398559 -3.02063e-05 -0.0357974 0.46824 -0.000265341 -0.0514155 0.468159 -0.000162678 -0.0324008 0.468251 -0.000113896 -0.0514139 0.468111 -0.00021431 -0.0251489 0.468089 -0.000309313 -0.0369033 0.468159 -0.000189775 0.00559206 0.468115 -0.000288122 0.0100905 0.4681 -0.000176192 -0.0134018 0.468251 -0.000238475 0.0246074 0.468125 -0.000176257 -0.0134055 0.468111 -0.000138334 -0.00166801 0.468026 -0.000176147 -0.0133982 0.46824 -8.72186e-05 0.0246 0.468088 -4.34768e-05 0.0100805 0.468 -0.000176448 -0.0134128 0.468115 -6.41793e-05 -0.0368897 0.540804 -0.000266227 -0.0529028 0.540738 -0.000179561 -0.0331452 0.540815 -0.000140163 -0.0529007 0.540696 -0.000222088 -0.0256095 0.540677 -0.00030191 -0.037823 0.540738 -0.000199708 0.00633485 0.540703 -0.000281276 0.0110086 0.54069 -0.000189602 -0.0134025 0.540815 -0.000239034 0.0260928 0.540709 -0.000189661 -0.0134063 0.540696 -0.000157351 -0.00120948 0.540629 -0.000189559 -0.0133986 0.540804 -0.00011314 0.0260853 0.540676 -7.76582e-05 0.0109978 0.540602 -0.00018983 -0.0134141 0.540703 -9.78526e-05 -0.0378088 0.615892 -0.000268625 -0.0541262 0.615839 -0.000196913 -0.0337576 0.615902 -0.000166289 -0.0541237 0.615804 -0.000230931 -0.0259885 0.615787 -0.00029656 -0.0385794 0.615839 -0.000210566 0.00694591 0.615812 -0.000276448 0.0117637 0.615801 -0.000203709 -0.0134031 0.615902 -0.000241129 0.0273145 0.615815 -0.000203763 -0.0134071 0.615804 -0.000176698 -0.000832295 0.615753 -0.000203669 -0.013399 0.615891 -0.000138943 0.027307 0.615786 -0.000111182 0.0117521 0.615726 -0.00020391 -0.0134152 0.615812 -0.000130903 -0.0385648 0.693026 -0.000272513 -0.0551046 0.692986 -0.000214569 -0.0342477 0.693036 -0.000192021 -0.0551018 0.692957 -0.000240751 -0.0262917 0.692942 -0.000293314 -0.0391845 0.692986 -0.000222242 0.0074347 0.692967 -0.000273685 0.0123675 0.692957 -0.000218378 -0.0134036 0.693036 -0.000244738 0.0282914 0.692967 -0.000218425 -0.0134078 0.692957 -0.000196189 -0.000530598 0.692921 -0.000218341 -0.0133994 0.693026 -0.000164378 0.0282839 0.692942 -0.000143724 0.0123554 0.692893 -0.000218552 -0.0134161 0.692967 -0.000163011 -0.0391695 0.771768 -0.000277883 -0.0558597 0.77174 -0.000232371 -0.0346261 0.771778 -0.000217118 -0.0558564 0.771716 -0.000251478 -0.0265259 0.771703 -0.000292241 -0.0396513 0.77174 -0.000234645 0.00781198 0.771728 -0.00027305 0.0128333 0.77172 -0.000233484 -0.0134041 0.771778 -0.000249857 0.029045 0.771725 -0.000233525 -0.0134084 0.771716 -0.000215648 -0.000297757 0.771694 -0.00023345 -0.0133998 0.771768 -0.000189204 0.0290376 0.771703 -0.000174968 0.0128207 0.771666 -0.000233631 -0.0134169 0.771728 -0.000193865 -0.0396361 0.851723 -0.000284743 -0.0564153 0.851704 -0.000250178 -0.0349048 0.851733 -0.000241346 -0.0564117 0.851685 -0.000263055 -0.0266984 0.851674 -0.000293429 -0.0399948 0.851704 -0.000247699 0.00808976 0.851699 -0.000274627 0.013176 0.851691 -0.000248917 -0.0134045 0.851732 -0.000256497 0.0295994 0.851693 -0.000248952 -0.0134089 0.851685 -0.000234912 -0.00012635 0.851675 -0.000248888 -0.0134001 0.851723 -0.000213194 0.0295922 0.851674 -0.000204606 0.0131629 0.851646 -0.000249038 -0.0134176 0.851699 -0.000223163 -0.0399795 0.93254 -0.000293119 -0.0567981 0.932531 -0.000267858 -0.0350971 0.93255 -0.000264486 -0.0567941 0.932515 -0.00027544 -0.0268175 0.932505 -0.00029698 -0.0402314 0.93253 -0.00026134 0.00828134 0.93253 -0.000278513 0.013412 0.932524 -0.000264581 -0.0134048 0.93255 -0.000264687 0.0299811 0.932522 -0.00026461 -0.0134093 0.932515 -0.00025383 -8.15543e-06 0.932516 -0.000264557 -0.0134004 0.93254 -0.000236129 0.0299741 0.932505 -0.000232343 0.0133986 0.932486 -0.000264677 -0.0134181 0.93253 -0.000250614 -0.0402162 1.01392 -0.000303049 -0.0570374 1.01392 -0.0002853 -0.0352177 1.01393 -0.000286334 -0.057033 1.01391 -0.000288604 -0.0268922 1.0139 -0.000303016 -0.0403792 1.01392 -0.000275521 0.00840135 1.01393 -0.000284824 0.0135594 1.01392 -0.000280396 -0.0134051 1.01393 -0.000274469 0.0302194 1.01392 -0.000280418 -0.0134096 1.01391 -0.000272269 6.58651e-05 1.01392 -0.000280377 -0.0134006 1.01392 -0.00025781 0.0302127 1.0139 -0.000257897 0.0135457 1.01389 -0.000280468 -0.0134185 1.01393 -0.000275942 -0.0403641 1.09563 -0.000314597 -0.057165 1.09564 -0.000302399 -0.0352826 1.09564 -0.000306693 -0.0571603 1.09563 -0.000302548 -0.0269324 1.09562 -0.000311683 -0.040458 1.09564 -0.000290216 0.00846576 1.09564 -0.000293701 0.013638 1.09564 -0.000296298 -0.0134053 1.09564 -0.00028591 0.0303462 1.09563 -0.000296312 -0.0134098 1.09563 -0.000290102 0.000105566 1.09564 -0.000296284 -0.0134008 1.09563 -0.000278044 0.0303399 1.09562 -0.000280992 0.013624 1.09561 -0.000296345 -0.0134187 1.09564 -0.000298876 -0.0404431 1.17749 -0.000327819 -0.0572156 1.1775 -0.000319089 -0.035309 1.1775 -0.000325411 -0.0572104 1.17749 -0.000317253 -0.0269488 1.17748 -0.000323107 -0.0404891 1.1775 -0.000305396 0.00849191 1.17751 -0.000305266 0.013669 1.1775 -0.000312238 -0.0134054 1.1775 -0.00029907 0.0303961 1.1775 -0.000312245 -0.0134099 1.17749 -0.000307249 0.000121673 1.17751 -0.000312231 -0.013401 1.17749 -0.000296679 0.0303902 1.17748 -0.000301407 0.0136547 1.17748 -0.00031226 -0.0134189 1.17751 -0.000319201 -0.0404744 1.25939 -0.000342852 -0.0572266 1.2594 -0.00033528 -0.0353152 1.2594 -0.000342283 -0.0572212 1.25939 -0.000332792 -0.0269526 1.25939 -0.000337542 -0.0404957 1.2594 -0.000321093 0.00849801 1.25941 -0.000319748 0.0136757 1.2594 -0.000328185 -0.0134055 1.2594 -0.000314089 0.0304068 1.2594 -0.000328187 -0.01341 1.25939 -0.000323587 0.000125422 1.25941 -0.000328183 -0.013401 1.25939 -0.000313526 0.0304011 1.25939 -0.000318841 0.0136613 1.25938 -0.000328192 -0.0134189 1.25941 -0.000336619 -0.0404812 -0.000647961 -0.000316861 -0.0113587 0.00148707 -6.42967e-05 -0.009078 -0.000649414 7.31472e-05 -0.0113612 0.00222548 -0.000185237 -0.00816329 0.00081555 -0.000421496 -0.00947175 0.00569672 -0.000167042 -0.00456562 0.00613752 -0.000446629 -0.00398753 0.00351158 -0.000130354 -0.00675191 0.00804478 -0.000326142 -0.00247097 0.00355736 -0.000107003 -0.00679301 0.00482701 2.837e-06 -0.00538387 0.00333649 -0.000112484 -0.00662757 0.00800519 0.000120312 -0.00245142 0.00610653 0.000253825 -0.00397633 0.00332718 -9.49638e-05 -0.00662999 0.000838823 0.000185425 -0.00947072 0.000721141 -0.000162971 0.000345745 0.000963411 -0.000495913 0.000409575 0.00173383 -0.000341395 0.000108993 -2.11723e-05 -8.77276e-05 0.000283711 0.000411554 5.90605e-05 0.000366105 0.00169619 0.000152017 0.000143475 0.00096158 0.000336157 0.000418002 -0.0201453 -0.000276698 -0.0243806 -0.0200951 -4.93438e-05 -0.0188784 -0.0201458 7.88663e-05 -0.0243734 -0.0448057 -0.000284907 -0.0284705 -0.0445427 -3.81045e-05 -0.0209023 -0.0448182 0.000101393 -0.0284805 -0.0200278 -0.00016319 -0.0167619 -0.0444265 -0.000172875 -0.0180268 -0.0198738 -0.000392263 -0.0201089 -0.0444098 -0.00040677 -0.0227109 -0.0202487 -0.000147906 -0.00806519 -0.0201684 -0.000424736 -0.00679045 -0.0200294 -0.000113391 -0.0133869 -0.0444981 -0.000137157 -0.00585232 -0.0443525 -0.000400958 -0.00406311 -0.0443551 -8.85113e-05 -0.0133804 -0.020604 -0.000301946 -0.00285984 -0.0447103 -0.000280235 0.00171808 -0.0201079 -9.13818e-05 -0.0134104 -0.0444332 -8.63595e-05 -0.0133777 -0.0201276 1.46507e-05 -0.0100734 -0.0443963 5.3249e-06 -0.0087272 -0.019812 -0.000106372 -0.0133562 -0.0441491 -9.20804e-05 -0.0133905 -0.0205809 0.000124031 -0.00285003 -0.0447028 0.000119543 0.00171274 -0.0201468 0.000261611 -0.00679027 -0.0443335 0.000246758 -0.00405575 -0.0198071 -7.03467e-05 -0.0133484 -0.044143 -8.15792e-05 -0.0133829 -0.0198955 0.000191126 -0.0201181 -0.0444272 0.000215871 -0.02271 -0.0768571 -0.000267896 -0.0324978 -0.0766607 -3.57476e-05 -0.0229466 -0.0768659 9.3292e-05 -0.032501 -0.0765632 -0.000164599 -0.0192998 -0.0765139 -0.000382668 -0.0252054 -0.0766656 -0.000125935 -0.00385199 -0.0765467 -0.000359766 -0.00158996 -0.0765152 -8.05043e-05 -0.0134023 -0.076884 -0.000253112 0.0057165 -0.0765869 -8.1414e-05 -0.0133999 -0.0765671 -3.35637e-07 -0.00749829 -0.0763244 -7.92086e-05 -0.0134028 -0.0768734 0.000101695 0.00571506 -0.0765285 0.000214415 -0.00158333 -0.0763169 -8.32384e-05 -0.0133981 -0.0765325 0.000202246 -0.0252088 -0.116176 -0.000245937 -0.0361788 -0.115988 -3.63637e-05 -0.0247778 -0.116186 8.01822e-05 -0.0361844 -0.115899 -0.00015167 -0.0204291 -0.115861 -0.000349292 -0.0274767 -0.115989 -0.000117527 -0.00201608 -0.115877 -0.000332781 0.000680192 -0.115854 -7.67762e-05 -0.0133975 -0.116183 -0.000234299 0.00938508 -0.115919 -7.68924e-05 -0.0133967 -0.115899 -2.14148e-06 -0.00636166 -0.115681 -7.70004e-05 -0.0133985 -0.116174 9.26871e-05 0.00938323 -0.115859 0.000195975 0.000686205 -0.115673 -7.6974e-05 -0.0133935 -0.115879 0.00017848 -0.0274782 -0.162036 -0.00022688 -0.0395177 -0.161869 -3.62237e-05 -0.0264504 -0.162045 6.89974e-05 -0.0395224 -0.161787 -0.000140856 -0.0214639 -0.161751 -0.000320305 -0.0295419 -0.161868 -0.00010909 -0.000347722 -0.161768 -0.000303548 0.0027427 -0.161746 -7.26467e-05 -0.0133998 -0.162045 -0.000214213 0.0127244 -0.161805 -7.2707e-05 -0.0133985 -0.161786 -4.70742e-06 -0.00533156 -0.16159 -7.24569e-05 -0.013401 -0.162036 8.1252e-05 0.0127224 -0.161751 0.000174431 0.00274852 -0.161581 -7.29473e-05 -0.0133965 -0.161768 0.000158601 -0.0295435 -0.213828 -0.000207827 -0.0425279 -0.213677 -3.65436e-05 -0.0279559 -0.213837 5.73899e-05 -0.0425326 -0.213604 -0.00013014 -0.0223949 -0.213572 -0.000291262 -0.0314028 -0.213677 -0.000100982 0.00115551 -0.213588 -0.000275257 0.00460091 -0.213569 -6.86744e-05 -0.013401 -0.213836 -0.000194833 0.0157315 -0.213621 -6.87939e-05 -0.0134 -0.213604 -7.63645e-06 -0.00440312 -0.213429 -6.85976e-05 -0.013402 -0.213828 7.01321e-05 0.0157295 -0.213571 0.000153326 0.00460642 -0.213419 -6.90162e-05 -0.0133977 -0.213589 0.000137985 -0.0314041 -0.270937 -0.000189424 -0.0452133 -0.270804 -3.6953e-05 -0.0292994 -0.270945 4.59273e-05 -0.0452178 -0.270738 -0.000119855 -0.0232258 -0.270709 -0.000263112 -0.0330629 -0.270804 -9.32278e-05 0.00249659 -0.270726 -0.000247751 0.00625872 -0.270708 -6.50321e-05 -0.0134021 -0.270945 -0.000176041 0.0184144 -0.270753 -6.5124e-05 -0.0134011 -0.270738 -1.05514e-05 -0.00357476 -0.270584 -6.49368e-05 -0.0134031 -0.270937 5.90636e-05 0.0184124 -0.270709 0.000132537 0.00626399 -0.270574 -6.53323e-05 -0.0133991 -0.270726 0.00011782 -0.0330641 -0.332763 -0.000171616 -0.0475822 -0.332647 -3.74666e-05 -0.0304846 -0.332771 3.4677e-05 -0.0475865 -0.332589 -0.000109942 -0.0239588 -0.332563 -0.000235823 -0.0345274 -0.332647 -8.57826e-05 0.00367963 -0.332579 -0.000221101 0.00772102 -0.332563 -6.15641e-05 -0.0134032 -0.332771 -0.000157863 0.020781 -0.332603 -6.16534e-05 -0.0134022 -0.332589 -1.35135e-05 -0.0028441 -0.332456 -6.14802e-05 -0.0134041 -0.332763 4.82082e-05 0.020779 -0.332563 0.000112217 0.00772606 -0.332444 -6.18416e-05 -0.0134003 -0.332579 9.80778e-05 -0.0345285 -0.398724 -0.000154482 -0.0496444 -0.398624 -3.80022e-05 -0.0315166 -0.398732 2.37789e-05 -0.0496486 -0.398573 -0.000100426 -0.024597 -0.39855 -0.000209541 -0.0358023 -0.398624 -7.86446e-05 0.00470952 -0.398566 -0.00019543 0.00899393 -0.398552 -5.82693e-05 -0.0134041 -0.398731 -0.000140368 0.022841 -0.398586 -5.83504e-05 -0.0134032 -0.398573 -1.641e-05 -0.00220803 -0.39846 -5.8191e-05 -0.0134051 -0.398724 3.76862e-05 0.0228391 -0.39855 9.25659e-05 0.00899876 -0.398448 -5.85234e-05 -0.0134014 -0.398567 7.89943e-05 -0.0358034 -0.468256 -0.000138086 -0.051412 -0.468172 -3.85087e-05 -0.0324012 -0.468264 1.33613e-05 -0.051416 -0.468128 -9.13167e-05 -0.0251441 -0.468108 -0.000184395 -0.036895 -0.468172 -7.18105e-05 0.00559228 -0.468124 -0.000170872 0.0100849 -0.468111 -5.51096e-05 -0.0134051 -0.468263 -0.000123629 0.0246066 -0.468139 -5.51838e-05 -0.0134042 -0.468128 -1.91743e-05 -0.00166285 -0.468033 -5.5038e-05 -0.0134059 -0.468256 2.7631e-05 0.0246048 -0.468108 7.37784e-05 0.0100895 -0.46802 -5.53401e-05 -0.0134024 -0.468124 6.07449e-05 -0.0368961 -0.540822 -0.000122506 -0.0528992 -0.540752 -3.89286e-05 -0.0331456 -0.540828 3.5597e-06 -0.052903 -0.540715 -8.26347e-05 -0.0256045 -0.540697 -0.000160532 -0.0378144 -0.540752 -6.52827e-05 0.00633503 -0.540713 -0.000147568 0.0110027 -0.540702 -5.20606e-05 -0.0134059 -0.540828 -0.000107725 0.0260919 -0.540724 -5.21274e-05 -0.013405 -0.540714 -2.17309e-05 -0.00120415 -0.540638 -5.19957e-05 -0.0134067 -0.540821 1.81721e-05 0.0260902 -0.540697 5.60543e-05 0.0110071 -0.540624 -5.22675e-05 -0.0134033 -0.540713 4.35301e-05 -0.0378155 -0.61591 -0.000107829 -0.0541225 -0.615855 -3.92087e-05 -0.0337581 -0.615917 -5.4909e-06 -0.0541261 -0.615823 -7.4406e-05 -0.0259834 -0.615809 -0.000138112 -0.0385706 -0.615855 -5.90683e-05 0.00694605 -0.615824 -0.000125671 0.0117575 -0.615814 -4.90982e-05 -0.0134066 -0.615917 -9.2746e-05 0.0273135 -0.615832 -4.91578e-05 -0.0134058 -0.615823 -2.4008e-05 -0.000826835 -0.615763 -4.90401e-05 -0.0134074 -0.61591 9.44255e-06 0.027312 -0.615808 3.95986e-05 0.0117617 -0.615749 -4.92818e-05 -0.0134041 -0.615824 2.75488e-05 -0.0385718 -0.693046 -9.41475e-05 -0.0551009 -0.693003 -3.92977e-05 -0.0342482 -0.693052 -1.36543e-05 -0.0551042 -0.692977 -6.66611e-05 -0.0262866 -0.692965 -0.000117302 -0.0391755 -0.693003 -5.31785e-05 0.00743482 -0.69298 -0.000105345 0.0123611 -0.692972 -4.62026e-05 -0.0134073 -0.693052 -7.8787e-05 0.0282903 -0.692985 -4.62548e-05 -0.0134065 -0.692977 -2.59345e-05 -0.000525031 -0.692933 -4.61515e-05 -0.0134081 -0.693046 1.57536e-06 0.028289 -0.692965 2.46191e-05 0.0123652 -0.692918 -4.6363e-05 -0.0134048 -0.69298 1.30043e-05 -0.0391767 -0.77179 -8.15609e-05 -0.0558559 -0.771758 -3.9146e-05 -0.0346267 -0.771796 -2.07943e-05 -0.0558589 -0.771738 -5.94353e-05 -0.0265207 -0.771727 -9.82769e-05 -0.0396422 -0.771758 -4.76285e-05 0.00781208 -0.771742 -8.67593e-05 0.0128268 -0.771735 -4.33567e-05 -0.0134078 -0.771795 -6.59507e-05 0.0290439 -0.771744 -4.34015e-05 -0.013407 -0.771737 -2.74415e-05 -0.000292107 -0.771707 -4.33126e-05 -0.0134086 -0.771789 -5.29622e-06 0.0290428 -0.771727 1.13258e-05 0.0128307 -0.771691 -4.34939e-05 -0.0134054 -0.771742 1.01517e-07 -0.0396435 -0.851745 -7.01733e-05 -0.0564115 -0.851724 -3.87068e-05 -0.0349054 -0.851751 -2.67749e-05 -0.0564142 -0.851708 -5.27674e-05 -0.0266932 -0.8517 -8.1