<?xml version="1.0"?>
<!--Shaheen-->
<VTKFile type="UnstructuredGrid" version="0.1" byte_order="LittleEndian">
  <UnstructuredGrid>
    <Piece NumberOfPoints="791" NumberOfCells="973">
      <Points>
        <DataArray type="Float32" NumberOfComponents="3" format="ascii">
-0.190211 -0.0618034 -0.866203 -0.17591 0.0347644 -0.761951 -0.166717 -0.0910144 -0.722131 0 -0.0768927 -0.886453 0.190211 -0.0618034 -0.866203 0.166717 -0.0910144 -0.722131 0.17591 0.0347644 -0.761951 -0.190211 0.0618034 -0.866203 -0.181592 0.2 -0.786562 -0.117557 0.161803 -0.847614 0 0.0768927 -0.886453 0.181592 0.2 -0.786562 0.190211 0.0618034 -0.866203 0.117557 0.161803 -0.847614 -0.181592 -0.2 -0.786562 -0.117557 -0.161803 -0.847614 0.181592 -0.2 -0.786562 0.117557 -0.161803 -0.847614 -0.151842 0.1125 -0.6577 0 0.2 -0.792573 0.151842 0.1125 -0.6577 -0.151842 0.225 -0.6577 0.151842 0.225 -0.6577 0.151842 -0.225 -0.6577 0 -0.2 -0.792573 -0.151842 -0.225 -0.6577 0 -7.38343e-17 -0.9 0.888988 -0.0695288 0.4 0.781994 0.0347644 0.4 0.888988 0.0695288 0.4 0.888988 -0.0695288 2.2226e-15 0.781994 0.0347644 2.2357e-15 0.888988 0.0695288 2.2226e-15 0.741126 -0.0910144 0.4 0.741126 -0.0910144 2.24071e-15 0.807252 -0.182029 0.4 0.807252 -0.182029 2.23261e-15 0.568006 0.0347644 0.4 0.542748 0.182029 0.4 0.675 0.1125 0.4 0.568006 0.0347644 2.26191e-15 0.542748 0.182029 2.265e-15 0.675 0.1125 2.2488e-15 0.461012 0.0695288 0.4 0.461012 0.0695288 2.27501e-15 0.675 0 0.4 0.675 0 2.2488e-15 0.608874 -0.0910144 0.4 0.608874 -0.0910144 2.2569e-15 0.675 0.225 0.4 0.675 0.225 2.2488e-15 0.461012 -0.0695288 0.4 0.461012 -0.0695288 2.27501e-15 0.542748 -0.182029 0.4 0.542748 -0.182029 2.265e-15 0.675 -0.225 0.4 0.675 -0.225 2.2488e-15 0.807252 0.182029 0.4 0.807252 0.182029 2.23261e-15 0.888988 -0.0695288 0.8 0.781994 0.0347644 0.8 0.888988 0.0695288 0.8 0.741126 -0.0910144 0.8 0.807252 -0.182029 0.8 0.568006 0.0347644 0.8 0.542748 0.182029 0.8 0.675 0.1125 0.8 0.461012 0.0695288 0.8 0.675 0 0.8 0.608874 -0.0910144 0.8 0.675 0.225 0.8 0.461012 -0.0695288 0.8 0.542748 -0.182029 0.8 0.675 -0.225 0.8 0.807252 0.182029 0.8 0.888988 -0.0695288 1.2 0.781994 0.0347644 1.2 0.888988 0.0695288 1.2 0.741126 -0.0910144 1.2 0.807252 -0.182029 1.2 0.568006 0.0347644 1.2 0.542748 0.182029 1.2 0.675 0.1125 1.2 0.461012 0.0695288 1.2 0.675 0 1.2 0.608874 -0.0910144 1.2 0.675 0.225 1.2 0.461012 -0.0695288 1.2 0.542748 -0.182029 1.2 0.675 -0.225 1.2 0.807252 0.182029 1.2 0.888988 -0.0695288 1.6 0.781994 0.0347644 1.6 0.888988 0.0695288 1.6 0.741126 -0.0910144 1.6 0.807252 -0.182029 1.6 0.568006 0.0347644 1.6 0.542748 0.182029 1.6 0.675 0.1125 1.6 0.461012 0.0695288 1.6 0.675 0 1.6 0.608874 -0.0910144 1.6 0.675 0.225 1.6 0.461012 -0.0695288 1.6 0.542748 -0.182029 1.6 0.675 -0.225 1.6 0.807252 0.182029 1.6 0.888988 -0.0695288 2 0.781994 0.0347644 2 0.888988 0.0695288 2 0.741126 -0.0910144 2 0.807252 -0.182029 2 0.568006 0.0347644 2 0.542748 0.182029 2 0.675 0.1125 2 0.461012 0.0695288 2 0.675 0 2 0.608874 -0.0910144 2 0.675 0.225 2 0.461012 -0.0695288 2 0.542748 -0.182029 2 0.675 -0.225 2 0.807252 0.182029 2 0.888988 -0.0695288 2.4 0.781994 0.0347644 2.4 0.888988 0.0695288 2.4 0.741126 -0.0910144 2.4 0.807252 -0.182029 2.4 0.568006 0.0347644 2.4 0.542748 0.182029 2.4 0.675 0.1125 2.4 0.461012 0.0695288 2.4 0.675 0 2.4 0.608874 -0.0910144 2.4 0.675 0.225 2.4 0.461012 -0.0695288 2.4 0.542748 -0.182029 2.4 0.675 -0.225 2.4 0.807252 0.182029 2.4 0.888988 -0.0695288 2.8 0.781994 0.0347644 2.8 0.888988 0.0695288 2.8 0.741126 -0.0910144 2.8 0.807252 -0.182029 2.8 0.568006 0.0347644 2.8 0.542748 0.182029 2.8 0.675 0.1125 2.8 0.461012 0.0695288 2.8 0.675 0 2.8 0.608874 -0.0910144 2.8 0.675 0.225 2.8 0.461012 -0.0695288 2.8 0.542748 -0.182029 2.8 0.675 -0.225 2.8 0.807252 0.182029 2.8 0.888988 -0.0695288 3.2 0.781994 0.0347644 3.2 0.888988 0.0695288 3.2 0.741126 -0.0910144 3.2 0.807252 -0.182029 3.2 0.568006 0.0347644 3.2 0.542748 0.182029 3.2 0.675 0.1125 3.2 0.461012 0.0695288 3.2 0.675 0 3.2 0.608874 -0.0910144 3.2 0.675 0.225 3.2 0.461012 -0.0695288 3.2 0.542748 -0.182029 3.2 0.675 -0.225 3.2 0.807252 0.182029 3.2 0.888988 -0.0695288 3.6 0.781994 0.0347644 3.6 0.888988 0.0695288 3.6 0.741126 -0.0910144 3.6 0.807252 -0.182029 3.6 0.568006 0.0347644 3.6 0.542748 0.182029 3.6 0.675 0.1125 3.6 0.461012 0.0695288 3.6 0.675 0 3.6 0.608874 -0.0910144 3.6 0.675 0.225 3.6 0.461012 -0.0695288 3.6 0.542748 -0.182029 3.6 0.675 -0.225 3.6 0.807252 0.182029 3.6 0.888988 -0.0695288 4 0.781994 0.0347644 4 0.888988 0.0695288 4 0.741126 -0.0910144 4 0.807252 -0.182029 4 0.568006 0.0347644 4 0.542748 0.182029 4 0.675 0.1125 4 0.461012 0.0695288 4 0.675 0 4 0.608874 -0.0910144 4 0.675 0.225 4 0.461012 -0.0695288 4 0.542748 -0.182029 4 0.675 -0.225 4 0.807252 0.182029 4 0.888988 -0.0695288 4.4 0.781994 0.0347644 4.4 0.888988 0.0695288 4.4 0.741126 -0.0910144 4.4 0.807252 -0.182029 4.4 0.568006 0.0347644 4.4 0.542748 0.182029 4.4 0.675 0.1125 4.4 0.461012 0.0695288 4.4 0.675 0 4.4 0.608874 -0.0910144 4.4 0.675 0.225 4.4 0.461012 -0.0695288 4.4 0.542748 -0.182029 4.4 0.675 -0.225 4.4 0.807252 0.182029 4.4 0.888988 -0.0695288 4.8 0.781994 0.0347644 4.8 0.888988 0.0695288 4.8 0.741126 -0.0910144 4.8 0.807252 -0.182029 4.8 0.568006 0.0347644 4.8 0.542748 0.182029 4.8 0.675 0.1125 4.8 0.461012 0.0695288 4.8 0.675 0 4.8 0.608874 -0.0910144 4.8 0.675 0.225 4.8 0.461012 -0.0695288 4.8 0.542748 -0.182029 4.8 0.675 -0.225 4.8 0.807252 0.182029 4.8 0.888988 -0.0695288 5.2 0.781994 0.0347644 5.2 0.888988 0.0695288 5.2 0.741126 -0.0910144 5.2 0.807252 -0.182029 5.2 0.568006 0.0347644 5.2 0.542748 0.182029 5.2 0.675 0.1125 5.2 0.461012 0.0695288 5.2 0.675 0 5.2 0.608874 -0.0910144 5.2 0.675 0.225 5.2 0.461012 -0.0695288 5.2 0.542748 -0.182029 5.2 0.675 -0.225 5.2 0.807252 0.182029 5.2 0.888988 -0.0695288 5.6 0.781994 0.0347644 5.6 0.888988 0.0695288 5.6 0.741126 -0.0910144 5.6 0.807252 -0.182029 5.6 0.568006 0.0347644 5.6 0.542748 0.182029 5.6 0.675 0.1125 5.6 0.461012 0.0695288 5.6 0.675 0 5.6 0.608874 -0.0910144 5.6 0.675 0.225 5.6 0.461012 -0.0695288 5.6 0.542748 -0.182029 5.6 0.675 -0.225 5.6 0.807252 0.182029 5.6 0.888988 -0.0695288 6 0.781994 0.0347644 6 0.888988 0.0695288 6 0.741126 -0.0910144 6 0.807252 -0.182029 6 0.568006 0.0347644 6 0.542748 0.182029 6 0.675 0.1125 6 0.461012 0.0695288 6 0.675 0 6 0.608874 -0.0910144 6 0.675 0.225 6 0.461012 -0.0695288 6 0.542748 -0.182029 6 0.675 -0.225 6 0.807252 0.182029 6 0.888988 -0.0695288 6.4 0.781994 0.0347644 6.4 0.888988 0.0695288 6.4 0.741126 -0.0910144 6.4 0.807252 -0.182029 6.4 0.568006 0.0347644 6.4 0.542748 0.182029 6.4 0.675 0.1125 6.4 0.461012 0.0695288 6.4 0.675 0 6.4 0.608874 -0.0910144 6.4 0.675 0.225 6.4 0.461012 -0.0695288 6.4 0.542748 -0.182029 6.4 0.675 -0.225 6.4 0.807252 0.182029 6.4 0.888988 -0.0695288 6.8 0.781994 0.0347644 6.8 0.888988 0.0695288 6.8 0.741126 -0.0910144 6.8 0.807252 -0.182029 6.8 0.568006 0.0347644 6.8 0.542748 0.182029 6.8 0.675 0.1125 6.8 0.461012 0.0695288 6.8 0.675 0 6.8 0.608874 -0.0910144 6.8 0.675 0.225 6.8 0.461012 -0.0695288 6.8 0.542748 -0.182029 6.8 0.675 -0.225 6.8 0.807252 0.182029 6.8 0.888988 -0.0695288 7.2 0.781994 0.0347644 7.2 0.888988 0.0695288 7.2 0.741126 -0.0910144 7.2 0.807252 -0.182029 7.2 0.568006 0.0347644 7.2 0.542748 0.182029 7.2 0.675 0.1125 7.2 0.461012 0.0695288 7.2 0.675 0 7.2 0.608874 -0.0910144 7.2 0.675 0.225 7.2 0.461012 -0.0695288 7.2 0.542748 -0.182029 7.2 0.675 -0.225 7.2 0.807252 0.182029 7.2 0.888988 -0.0695288 7.6 0.781994 0.0347644 7.6 0.888988 0.0695288 7.6 0.741126 -0.0910144 7.6 0.807252 -0.182029 7.6 0.568006 0.0347644 7.6 0.542748 0.182029 7.6 0.675 0.1125 7.6 0.461012 0.0695288 7.6 0.675 0 7.6 0.608874 -0.0910144 7.6 0.675 0.225 7.6 0.461012 -0.0695288 7.6 0.542748 -0.182029 7.6 0.675 -0.225 7.6 0.807252 0.182029 7.6 0.695729 -0.0695288 -0.553408 0.611995 0.0347644 -0.486803 0.695729 0.0695288 -0.553408 0.580011 -0.0910144 -0.461362 0.631762 -0.182029 -0.502526 0.444526 0.0347644 -0.353592 0.424759 0.182029 -0.337869 0.528261 0.1125 -0.420197 0.360792 0.0695288 -0.286987 0.528261 0 -0.420197 0.47651 -0.0910144 -0.379033 0.528261 0.225 -0.420197 0.360792 -0.0695288 -0.286987 0.424759 -0.182029 -0.337869 0.528261 -0.225 -0.420197 0.631762 0.182029 -0.502526 0.127774 0.0347644 -0.553448 0.122092 0.182029 -0.528838 0.103705 0.0695288 -0.449197 0.151842 0 -0.6577 0.136967 -0.0910144 -0.593269 0.103705 -0.0695288 -0.449197 0.122092 -0.182029 -0.528838 -0.888988 -0.0695288 2.2226e-15 -0.781994 0.0347644 2.2357e-15 -0.888988 0.0695288 2.2226e-15 -0.888988 -0.0695288 0.4 -0.781994 0.0347644 0.4 -0.888988 0.0695288 0.4 -0.741126 -0.0910144 2.24071e-15 -0.741126 -0.0910144 0.4 -0.807252 -0.182029 2.23261e-15 -0.807252 -0.182029 0.4 -0.568006 0.0347644 2.26191e-15 -0.542748 0.182029 2.265e-15 -0.675 0.1125 2.2488e-15 -0.568006 0.0347644 0.4 -0.542748 0.182029 0.4 -0.675 0.1125 0.4 -0.461012 0.0695288 2.27501e-15 -0.461012 0.0695288 0.4 -0.675 0 2.2488e-15 -0.675 0 0.4 -0.608874 -0.0910144 2.2569e-15 -0.608874 -0.0910144 0.4 -0.675 0.225 2.2488e-15 -0.675 0.225 0.4 -0.461012 -0.0695288 2.27501e-15 -0.461012 -0.0695288 0.4 -0.542748 -0.182029 2.265e-15 -0.542748 -0.182029 0.4 -0.675 -0.225 2.2488e-15 -0.675 -0.225 0.4 -0.807252 0.182029 2.23261e-15 -0.807252 0.182029 0.4 -0.888988 -0.0695288 0.8 -0.781994 0.0347644 0.8 -0.888988 0.0695288 0.8 -0.741126 -0.0910144 0.8 -0.807252 -0.182029 0.8 -0.568006 0.0347644 0.8 -0.542748 0.182029 0.8 -0.675 0.1125 0.8 -0.461012 0.0695288 0.8 -0.675 0 0.8 -0.608874 -0.0910144 0.8 -0.675 0.225 0.8 -0.461012 -0.0695288 0.8 -0.542748 -0.182029 0.8 -0.675 -0.225 0.8 -0.807252 0.182029 0.8 -0.888988 -0.0695288 1.2 -0.781994 0.0347644 1.2 -0.888988 0.0695288 1.2 -0.741126 -0.0910144 1.2 -0.807252 -0.182029 1.2 -0.568006 0.0347644 1.2 -0.542748 0.182029 1.2 -0.675 0.1125 1.2 -0.461012 0.0695288 1.2 -0.675 0 1.2 -0.608874 -0.0910144 1.2 -0.675 0.225 1.2 -0.461012 -0.0695288 1.2 -0.542748 -0.182029 1.2 -0.675 -0.225 1.2 -0.807252 0.182029 1.2 -0.888988 -0.0695288 1.6 -0.78199
[...]
      <PointData>
        <DataArray type="Float32" Name="displacement" NumberOfComponents="3" format="ascii">
-0.415134 4.19044e-05 -0.0452523 -0.439726 -4.35197e-05 -0.0416702 -0.449018 5.99779e-05 -0.0394211 -0.410078 1.03561e-05 2.033e-07 -0.415133 -1.65914e-05 0.0452532 -0.449019 -3.42967e-05 0.0394218 -0.439728 6.87315e-05 0.0416699 -0.415128 -7.11636e-05 -0.045279 -0.4342 -0.000252408 -0.0429141 -0.419437 -6.43841e-05 -0.0280235 -0.410066 1.05693e-05 -4.83381e-07 -0.434202 0.000278109 0.0429113 -0.41513 9.63695e-05 0.0452786 -0.419445 8.83804e-05 0.028022 -0.4341 0.000228075 -0.0429449 -0.419391 6.7054e-05 -0.0280291 -0.434097 -0.000202551 0.0429476 -0.419381 -4.31788e-05 0.0280302 -0.46397 -7.3251e-05 -0.0358602 -0.432645 1.26893e-05 -5.11082e-07 -0.463968 9.96539e-05 0.0358594 -0.464038 -0.000101731 -0.0359235 -0.46404 0.000128206 0.0359216 -0.46396 -4.58358e-05 0.0359125 -0.432582 1.28269e-05 5.39251e-07 -0.463961 7.21716e-05 -0.0359105 -0.406768 1.03323e-05 -1.0304e-07 -0.669925 -0.000134446 0.180804 -0.670458 0.000328015 0.164879 -0.669943 0.000643103 0.180802 -0.602852 -3.26613e-05 0.188167 -0.602957 0.000273319 0.168338 -0.602885 0.00049958 0.188205 -0.670644 5.52566e-05 0.158807 -0.603025 0.00011462 0.160855 -0.670681 -0.000394876 0.16865 -0.603238 -0.000207938 0.173192 -0.670476 6.11214e-05 0.133061 -0.670807 -0.000508769 0.129259 -0.670827 0.000181827 0.148966 -0.602687 6.1277e-05 0.128839 -0.602856 -0.000405556 0.124101 -0.603068 0.000124902 0.14868 -0.670015 -0.000269026 0.117096 -0.602145 -0.000211133 0.108705 -0.670632 0.000201505 0.148973 -0.602917 0.000186427 0.148649 -0.670659 0.000382317 0.13914 -0.602848 0.000353018 0.136451 -0.671286 0.000158107 0.148943 -0.603437 0.000112227 0.148736 -0.669991 0.000569691 0.11711 -0.60214 0.000472836 0.108747 -0.670737 0.000871436 0.129264 -0.602791 0.000733925 0.124098 -0.671164 0.000242707 0.148962 -0.603319 0.000270007 0.148757 -0.670751 0.000838507 0.168635 -0.60331 0.000625062 0.173156 -0.721476 -0.00018072 0.171769 -0.722002 0.000357768 0.16042 -0.721497 0.00071411 0.171781 -0.722205 3.84836e-05 0.156117 -0.722304 -0.000480241 0.163138 -0.721965 6.03807e-05 0.137881 -0.722313 -0.000569736 0.135181 -0.722385 0.000197239 0.149147 -0.721407 -0.00030478 0.126543 -0.722167 0.000213692 0.149151 -0.722181 0.000414421 0.142188 -0.722906 0.000181164 0.149146 -0.721389 0.00062585 0.126558 -0.722245 0.000957808 0.135184 -0.722782 0.000246408 0.149156 -0.722373 0.000946577 0.163121 -0.754526 -0.000213126 0.161672 -0.755118 0.000375635 0.155497 -0.754544 0.000762985 0.161677 -0.755342 2.86136e-05 0.153154 -0.755437 -0.00053997 0.156976 -0.755084 5.58204e-05 0.14322 -0.755469 -0.000631777 0.141744 -0.755537 0.000204261 0.149358 -0.754484 -0.000341753 0.137032 -0.755302 0.00022096 0.149359 -0.755322 0.000440437 0.145566 -0.756103 0.000187179 0.149356 -0.754465 0.000676613 0.137042 -0.755401 0.00103626 0.141743 -0.755976 0.00025405 0.149362 -0.755506 0.00101884 0.156967 -0.767506 -0.000240159 0.150814 -0.768128 0.000386236 0.150168 -0.767524 0.000794996 0.150819 -0.768369 1.66999e-05 0.149931 -0.768472 -0.000586869 0.150332 -0.768099 5.03596e-05 0.148927 -0.768503 -0.000673036 0.148765 -0.768575 0.000207448 0.149548 -0.767465 -0.000367732 0.148276 -0.768327 0.000222989 0.149548 -0.768351 0.000454187 0.149164 -0.769172 0.000191887 0.149547 -0.767447 0.000705423 0.148281 -0.768436 0.00108251 0.148761 -0.769043 0.000253588 0.149547 -0.76854 0.001069 0.15033 -0.759261 -0.000258078 0.139484 -0.759901 0.00038681 0.144602 -0.759278 0.000806459 0.139488 -0.76015 6.18703e-06 0.146557 -0.760255 -0.000615069 0.143394 -0.759873 4.31526e-05 0.154849 -0.760288 -0.000697672 0.156055 -0.76036 0.000204907 0.149726 -0.759223 -0.000385157 0.159963 -0.760107 0.000219403 0.149725 -0.760133 0.00045592 0.15289 -0.760973 0.000190247 0.149728 -0.759206 0.000715072 0.159962 -0.760221 0.00110038 0.156048 -0.760843 0.000248006 0.149721 -0.760322 0.00108952 0.143399 -0.729225 -0.000268154 0.12799 -0.729866 0.000377851 0.138946 -0.729243 0.000797967 0.127993 -0.730115 -4.1225e-06 0.143123 -0.73022 -0.000626319 0.13635 -0.729841 3.39338e-05 0.160835 -0.730256 -0.000705747 0.163428 -0.730327 0.000196499 0.149893 -0.729191 -0.000394225 0.17179 -0.730073 0.000209984 0.14989 -0.730099 0.00044573 0.156651 -0.730939 0.000182887 0.149896 -0.729174 0.000705019 0.171784 -0.730189 0.00108945 0.163417 -0.730809 0.000236517 0.149882 -0.730288 0.00108212 0.136362 -0.677395 -0.000270798 0.116628 -0.678022 0.000359301 0.13335 -0.677413 0.000769942 0.11663 -0.678264 -1.43045e-05 0.139721 -0.678365 -0.000621342 0.129382 -0.677999 2.25405e-05 0.166738 -0.678404 -0.000698178 0.170699 -0.678472 0.000182248 0.150048 -0.677366 -0.00039551 0.18346 -0.678224 0.000194699 0.150043 -0.67825 0.000423681 0.160356 -0.679071 0.000169663 0.150052 -0.677348 0.000675825 0.18345 -0.678337 0.00105059 0.170686 -0.678941 0.000219189 0.150032 -0.678434 0.0010473 0.129401 -0.604312 -0.000266881 0.105677 -0.604909 0.000331582 0.127952 -0.60433 0.000723491 0.105678 -0.605138 -2.47191e-05 0.136437 -0.605233 -0.00060164 0.122664 -0.604888 8.8171e-06 0.172418 -0.605276 -0.000676387 0.177697 -0.605339 0.00016224 0.15019 -0.604287 -0.000389877 0.194696 -0.605101 0.000173662 0.150183 -0.605125 0.000390361 0.163918 -0.605909 0.000150693 0.150196 -0.604269 0.000628544 0.19468 -0.605207 0.000985495 0.17768 -0.605781 0.000196106 0.150169 -0.605303 0.000986773 0.12269 -0.511017 -0.000257466 0.0953917 -0.511573 0.000295315 0.122881 -0.511037 0.000660241 0.0953925 -0.511783 -3.56939e-05 0.13335 -0.511869 -0.000569161 0.116353 -0.511553 -7.34486e-06 0.177747 -0.511915 -0.000642279 0.184263 -0.511972 0.000136746 0.15032 -0.510997 -0.000378436 0.20524 -0.51175 0.000147133 0.150312 -0.511771 0.000346615 0.16726 -0.512503 0.000126242 0.150328 -0.510978 0.000564779 0.205221 -0.511845 0.000896643 0.184243 -0.512376 0.000167537 0.150295 -0.51194 0.000902951 0.116385 -0.399004 -0.000243871 0.0859944 -0.399507 0.000251365 0.118246 -0.399025 0.000582333 0.085995 -0.399693 -4.76063e-05 0.130529 -0.399769 -0.00052635 0.110587 -0.399489 -2.60286e-05 0.182615 -0.399818 -0.000598222 0.190261 -0.399868 0.00010615 0.150437 -0.39899 -0.000362547 0.214872 -0.399666 0.000115501 0.150428 -0.399682 0.000293603 0.170311 -0.400348 9.66938e-05 0.150446 -0.398969 0.00048662 0.214849 -0.399747 0.000787254 0.190237 -0.400224 0.00013387 0.150408 -0.399841 0.000798982 0.110625 -0.270145 -0.000227642 0.0776658 -0.270586 0.000200796 0.114138 -0.270168 0.000492367 0.0776665 -0.270745 -6.08753e-05 0.128029 -0.270808 -0.000476105 0.105477 -0.27057 -4.73025e-05 0.186932 -0.270862 -0.000547027 0.195578 -0.270903 7.09534e-05 0.150543 -0.270136 -0.000343811 0.22341 -0.270724 7.92665e-05 0.150532 -0.270735 0.00023274 0.173018 -0.271325 6.25482e-05 0.150553 -0.270114 0.000396614 0.223384 -0.270789 0.000661226 0.195551 -0.271204 9.56008e-05 0.15051 -0.270882 0.000678674 0.10552 -0.126609 -0.000210547 0.0705389 -0.126982 0.000144847 0.110623 -0.126633 0.000393342 0.0705401 -0.127111 -7.59723e-05 0.12589 -0.127161 -0.00042175 0.101106 -0.126969 -7.12344e-05 0.190631 -0.127219 -0.000491919 0.200133 -0.127251 3.1739e-05 0.150635 -0.126605 -0.000324057 0.230721 -0.127096 3.90127e-05 0.150624 -0.127103 0.000165666 0.175338 -0.127609 2.43879e-05 0.150647 -0.126582 0.000297701 0.230693 -0.127144 0.00052305 0.200103 -0.127491 5.33147e-05 0.1506 -0.127236 0.00054642 0.101152 0.0292354 -0.000194564 0.0646924 0.028932 8.48887e-05 0.107741 0.0292099 0.000288597 0.0646944 0.0288348 -9.34307e-05 0.124138 0.0287986 -0.000366998 0.0975214 0.0289438 -9.79075e-05 0.193673 0.0287369 -0.000436498 0.203876 0.0287134 -1.08497e-05 0.150716 0.0292336 -0.000305333 0.236727 0.0288427 -4.6163e-06 0.150703 0.0288421 9.42032e-05 0.177248 0.0284215 -1.71451e-05 0.150728 0.0292588 0.000193147 0.236698 0.0288129 0.000377726 0.203843 0.0285368 7.65356e-06 0.150678 0.0287222 0.000407104 0.0975707 0.194925 -0.000181866 0.0601452 0.194691 2.23828e-05 0.1055 0.194898 0.000181724 0.0601485 0.194625 -0.000113854 0.122779 0.194602 -0.000315905 0.0947363 0.194701 -0.000127438 0.196049 0.194536 -0.000384698 0.206796 0.194522 -5.6141e-05 0.150784 0.194917 -0.000289887 0.241408 0.194626 -5.09481e-05 0.150771 0.194631 2.02991e-05 0.178741 0.194296 -6.13801e-05 0.150797 0.194944 8.64713e-05 0.241379 0.194614 0.000230653 0.206761 0.194408 -4.07115e-05 0.150744 0.194524 0.000266006 0.0947875 0.368018 -0.000174813 0.0568526 0.36785 -4.11583e-05 0.103879 0.36799 7.65055e-05 0.0568577 0.367813 -0.000137939 0.121797 0.367803 -0.000272834 0.0927225 0.367858 -0.00016 0.197781 0.367733 -0.000340753 0.208921 0.367728 -0.000103465 0.15084 0.368006 -0.00028016 0.24481 0.367808 -9.93139e-05 0.150826 0.367818 -5.40146e-05 0.179832 0.367563 -0.00010765 0.150853 0.368034 -1.86254e-05 0.244781 0.367813 8.75309e-05 0.208883 0.367672 -9.11136e-05 0.150798 0.367724 0.000128695 0.0927746 0.546221 -0.000175924 0.0547022 0.54611 -0.000104241 0.10282 0.546192 -2.31927e-05 0.0547095 0.546098 -0.000166449 0.121159 0.5461 -0.00024239 0.0914106 0.546116 -0.000195827 0.198926 0.546027 -0.000309131 0.21032 0.546029 -0.000152196 0.150883 0.546203 -0.000278754 0.247044 0.546088 -0.000149083 0.150869 0.546102 -0.000126705 0.180555 0.545918 -0.000155325 0.150896 0.546233 -0.00011836 0.247017 0.546107 -4.57751e-05 0.21028 0.546024 -0.000142923 0.15084 0.546019 9.00852e-07 0.0914625 0.727513 -0.000187956 0.0535113 0.727447 -0.000165353 0.102234 0.727482 -0.000113416 0.0535214 0.727456 -0.000200374 0.120808 0.727466 -0.000229508 0.0906877 0.727451 -0.000235316 0.199574 0.72739 -0.000294661 0.211105 0.727398 -0.000201775 0.150914 0.72749 -0.000288521 0.248294 0.72744 -0.000199698 0.150899 0.727458 -0.000195675 0.180967 0.727331 -0.000203869 0.150927 0.727521 -0.000208852 0.248269 0.727471 -0.000163188 0.211064 0.727435 -0.000195568 0.15087 0.727385 -0.000111466 0.0907386 0.910279 -0.000213614 0.0530266 0.910243 -0.000223262 0.101991 0.910248 -0.000190474 0.0530406 0.910265 -0.000240563 0.120665 0.910282 -0.000239042 0.0903974 0.910245 -0.000278766 0.199853 0.910202 -0.000301778 0.211435 0.910216 -0.00025169 0.150932 0.910252 -0.000312149 0.248811 0.910246 -0.000250714 0.150918 0.910266 -0.000259293 0.181147 0.910177 -0.000252667 0.150946 0.910283 -0.000286605 0.24879 0.910285 -0.000259243 0.21139 0.910279 -0.000248775 0.150888 0.9102 -0.000202805 0.0904462 1.09345 -0.000256044 0.0529204 1.09342 -0.000276642 0.101935 1.09342 -0.000250479 0.0529369 1.09345 -0.000288221 0.120632 1.09347 -0.00027617 0.0903358 1.09343 -0.000327233 0.199922 1.09339 -0.000337188 0.211511 1.0934 -0.000302168 0.150938 1.09342 -0.00035361 0.248928 1.09343 -0.000301835 0.150924 1.09345 -0.000314911 0.181192 1.09338 -0.000302518 0.150953 1.09345 -0.000347202 0.248909 1.09347 -0.000326398 0.211465 1.09348 -0.000301153 0.150895 1.09339 -0.000267588 0.0903831 -0.489814 -3.67289e-05 0.155843 -0.503839 0.000205042 0.137902 -0.489855 0.000362526 0.155834 -0.50921 5.97127e-05 0.131118 -0.5006 -0.000163443 0.142359 -0.531823 5.21093e-05 0.10203 -0.53523 -0.000239642 0.0977884 -0.517937 0.000113567 0.120038 -0.545595 -0.000134486 0.083832 -0.517857 0.000132654 0.12 -0.526511 0.000231224 0.108926 -0.518121 0.000132277 0.120185 -0.54559 0.000325636 0.0838768 -0.535161 0.000479151 0.0978047 -0.518011 0.000139794 0.120198 -0.500678 0.000463417 0.142331 -0.487762 2.85485e-05 0.0301536 -0.493563 -5.9195e-05 0.028839 -0.511628 -4.93029e-05 0.0243834 -0.463896 4.16425e-05 0.035864 -0.478683 4.45655e-05 0.0323402 -0.511567 0.000124538 0.0244024 -0.493498 0.000147376 0.0288445 -0.602853 6.91301e-05 -0.188167 -0.602958 -0.000237523 -0.168339 -0.602885 -0.000463118 -0.188207 -0.669927 0.000173811 -0.180804 -0.67046 -0.000289197 -0.164881 -0.669944 -0.00060374 -0.180803 -0.603026 -7.90426e-05 -0.160855 -0.670646 -1.66575e-05 -0.158807 -0.60324 0.00024391 -0.173192 -0.670683 0.000433796 -0.168649 -0.602688 -2.64805e-05 -0.12884 -0.602856 0.000440157 -0.124103 -0.603068 -8.96435e-05 -0.148682 -0.670477 -2.34221e-05 -0.133062 -0.670808 0.000546332 -0.129261 -0.670828 -0.000143581 -0.148968 -0.602146 0.00024541 -0.108706 -0.670017 0.000306192 -0.117097 -0.602918 -0.000151124 -0.14865 -0.670634 -0.000163258 -0.148974 -0.60285 -0.000318053 -0.13645 -0.670661 -0.000344415 -0.13914 -0.603437 -7.69902e-05 -0.148739 -0.671286 -0.000119888 -0.148945 -0.602141 -0.000438559 -0.108747 -0.669993 -0.000532532 -0.11711 -0.602793 -0.000699299 -0.124097 -0.67074 -0.000833891 -0.129263 -0.603321 -0.00023477 -0.148756 -0.671167 -0.000204489 -0.148961 -0.60331 -0.000589089 -0.173158 -0.670752 -0.000799596 -0.168637 -0.721478 0.000222295 -0.17177 -0.722003 -0.000316772 -0.160421 -0.721498 -0.00067254 -0.171782 -0.722208 2.29196e-06 -0.156118 -0.722307 0.000521354 -0.163138 -0.721967 -2.04876e-05 -0.137882 -0.722315 0.000609478 -0.135183 -0.722386 -0.000156812 -0.149148 -0.721408 0.000344138 -0.126544 -0.722169 -0.000173253 -0.149152 -0.722184 -0.00037433 -0.142188 -0.722907 -0.000140767 -0.149148 -0.721391 -0.000586498 -0.126558 -0.722248 -0.000918075 -0.135184 -0.722786 -0.000206012 -0.149156 -0.722374 -0.000905474 -0.163122 -0.754529 0.000256021 -0.161673 -0.75512 -0.000333319 -0.155498 -0.754546 -0.000720095 -0.161678 -0.755345 1.34801e-05 -0.153155 -0.755441 0.000582396 -0.156976 -0.755086 -1.46147e-05 -0.143221 -0.75547 0.00067283 -0.141745 -0.755539 -0.00016252 -0.149359 -0.754486 0.000382426 -0.137033 -0.755304 -0.000179207 -0.149359 -0.755325 -0.000399033 -0.145567 -0.756104 -0.000145473 -0.149358 -0.754468 -0.000635948 -0.137042 -0.755405 -0.00099522 -0.141744 -0.75598 -0.000212343 -0.149362 -0.755507 -0.000976425 -0.156969 -0.767509 0.000283398 -0.150815 -0.76813 -0.000343579 -0.150169 -0.767526 -0.000751761 -0.15082 -0.768372 2.57325e-05 -0.149932 -0.768476 0.000629635 -0.150333 -0.768102 -8.81631e-06 -0.148927 -0.768505 0.000714424 -0.148765 -0.768577 -0.00016537 -0.149548 -0.767467 0.000408741 -0.148277 -0.76833 -0.000180898 -0.149549 -0.768354 -0.000412447 -0.149164 -0.769173 -0.000149846 -0.149548 -0.76745 -0.000664421 -0.148281 -0.768439 -0.00104113 -0.148762 -0.769047 -0.000211546 -0.149547 -0.768542 -0.00102624 -0.150331 -0.759264 0.000300613 -0.139485 -0.759904 -0.000344859 -0.144602 -0.759281 -0.000763929 -0.139489 -0.760153 3.55374e-05 -0.146558 -0.760258 0.000657128 -0.143396 -0.759876 -2.31987e-06 -0.154849 -0.76029 0.000738348 -0.156055 -0.760362 -0.000163538 -0.149727 -0.759226 0.000425456 -0.159963 -0.760109 -0.00017802 -0.149725 -0.760136 -0.00041489 -0.152891 -0.760974 -0.000148917 -0.149728 -0.759209 -0.000674781 -0.159963 -0.760225 -0.00105971 -0.15605 -0.760846 -0.000206675 -0.149722 -0.760324 -0.00104747 -0.143399 -0.729228 0.000308897 -0.127992 -0.729869 -0.000337695 -0.138947 -0.729245 -0.000757229 -0.127993 -0.730118 4.4052e-05 -0.143124 -0.730223 0.000666583 -0.136352 -0.729843 5.10163e-06 -0.160836 -0.730257 0.000744625 -0.163427 -0.730329 -0.000156926 -0.149893 -0.729194 0.000432725 -0.17179 -0.730075 -0.000170397 -0.149891 -0.730102 -0.000406497 -0.156652 -0.730941 -0.000143353 -0.149896 -0.729177 -0.000666526 -0.171785 -0.730192 -0.00105059 -0.163419 -0.730813 -0.000196982 -0.149884 -0.730289 -0.00104187 -0.136362 -0.677398 0.000308652 -0.116629 -0.678024 -0.000322035 -0.13335 -0.677415 -0.000732092 -0.11663 -0.678267 5.13437e-05 -0.139722 -0.678369 0.000658717 -0.129384 -0.678001 1.36019e-05 -0.166739 -0.678406 0.000734162 -0.170699 -0.678474 -0.000145566 -0.150047 -0.677368 0.000431114 -0.183461 -0.678226 -0.000158004 -0.150043 -0.678253 -0.00038734 -0.160357 -0.679072 -0.00013302 -0.150051 -0.677351 -0.000640228 -0.183451 -0.67834 -0.00101462 -0.170688 -0.678944 -0.000182545 -0.150035 -0.678435 -0.00100993 -0.1294 -0.604314 0.000300769 -0.105678 -0.604911 -0.000298282 -0.127953 -0.604332 -0.000689606 -0.105678 -0.605141 5.77931e-05 -0.136439 -0.605236 0.000635051 -0.122667 -0.60489 2.33573e-05 -0.172418 -0.605277 0.000708404 -0.177696 -0.60534 -0.000129524 -0.150189 -0.604289 0.00042151 -0.194696 -0.605104 -0.000140933 -0.150184 -0.605128 -0.000357986 -0.16392 -0.60591 -0.000118014 -0.150194 -0.604271 -0.000596917 -0.194682 -0.60521 -0.000953487 -0.177683 -0.605784 -0.000163425 -0.150173 -0.605304 -0.00095337 -0.122689 -0.511019 0.000286362 -0.0953932 -0.511574 -0.000267007 -0.122881 -0.511038 -0.000631349 -0.095392 -0.511785 6.3776e-05 -0.133352 -0.511872 0.000597582 -0.116356 -0.511555 3.45244e-05 -0.177748 -0.511916 0.000669303 -0.184262 -0.511973 -0.000109022 -0.150319 -0.510999 0.000405072 -0.20524 -0.511752 -0.000119397 -0.150312 -0.511773 -0.000319234 -0.167262 -0.512503 -9.85514e-05 -0.150325 -0.51098 -0.000538148 -0.205222 -0.511848 -0.000869627 -0.184246 -0.512379 -0.000139846 -0.150299 -0.51194 -0.000874537 -0.116384 -0.399006 0.000266819 -0.085996 -0.399508 -0.000229003 -0.118246 -0.399026 -0.000559389 -0.0859943 -0.399695 6.9742e-05 -0.130531 -0.399771 0.000548826 -0.11059 -0.39949 4.72588e-05 -0.182616 -0.399819 0.000619298 -0.190259 -0.399869 -8.43722e-05 -0.150436 -0.398991 0.000383231 -0.214871 -0.399667 -9.37126e-05 -0.150429 -0.399684 -0.000272169 -0.170314 -0.400348 -7.49463e-05 -0.150444 -0.398971 -0.000465941 -0.214851 -0.399749 -0.000766185 -0.190241 -0.400226 -0.000112122 -0.150413 -0.399841 -0.000776512 -0.110622 -0.270146 0.00024378 -0.0776675 -0.270587 -0.000185243 -0.114138 -0.270168 -0.000476231 -0.0776657 -0.270746 7.62033e-05 -0.128031 -0.27081 0.000491775 -0.105481 -0.270571 6.17219e-05 -0.186933 -0.270862 0.000561295 -0.195576 -0.270904 -5.59828e-05 -0.150541 -0.270136 0.00035768 -0.223409 -0.270724 -6.42864e-05 -0.150533 -0.270737 -0.000218115 -0.17302 -0.271325 -4.76043e-05 -0.15055 -0.270115 -0.00038275 -0.223386 -0.270791 -0.000646964 -0.195555 -0.271206 -8.06565e-05 -0.150515 -0.270881 -0.000663009 -0.105517 -0.126609 0.000219122 -0.0705407 -0.126983 -0.000136855 -0.110623 -0.126633 -0.00038477 -0.0705391 -0.127112 8.37402e-05 -0.125893 -0.127162 0.000429862 -0.10111 -0.126969 7.80907e-05 -0.190632 -0.127218 0.000498627 -0.20013 -0.127251 -2.43279e-05 -0.150634 -0.126605 0.000330359 -0.230721 -0.127097 -3.15937e-05 -0.150625 -0.127103 -0.000158602 -0.175341 -0.127608 -1.69993e-05 -0.150643 -0.126582 -0.000291402 -0.230695 -0.127145 -0.000516348 -0.200107 -0.127492 -4.59258e-05 -0.150605 -0.127235 -0.000538312 -0.101149 0.0292355 0.000194944 -0.0646942 0.0289326 -8.50898e-05 -0.107741 0.0292108 -0.000288219 -0.0646932 0.0288348 9.30065e-05 -0.124141 0.028798 0.00036692 -0.0975257 0.0289444 9.6569e-05 -0.193674 0.0287383 0.000435013 -0.203873 0.0287145 1.00692e-05 -0.150714 0.0292344 0.000303437 -0.236727 0.0288431 3.84229e-06 -0.150704 0.028842 -9.53318e-05 -0.17725 0.0284232 1.63467e-05 -0.150724 0.0292589 -0.000195046 -0.2367 0.0288124 -0.000379215 -0.203848 0.028536 -8.45167e-06 -0.150683 0.0287236 -0.000407186 -0.0975674 0.194925 0.000173544 -0.0601471 0.194692 -3.12833e-05 -0.1055 0.194899 -0.000190048 -0.0601473 0.194625 0.000104732 -0.122781 0.194602 0.00030713 -0.0947408 0.194702 0.000117399 -0.196049 0.194539 0.000374515 -0.206793 0.194524 4.6663e-05 -0.150782 0.194919 0.000279286 -0.241408 0.194627 4.1475e-05 -0.150771 0.194631 -3.01266e-05 -0.178744 0.194298 5.18885e-05 -0.150793 0.194945 -9.7074e-05 -0.241381 0.194614 -0.000240839 -0.206766 0.194408 3.12201e-05 -0.150749 0.194526 -0.000274783 -0.0947839 0.36802 0.000157408 -0.0568545 0.367852 2.31773e-05 -0.103878 0.367992 -9.3911e-05 -0.0568564 0.367814 0.000119737 -0.1218 0.367804 0.000254982 -0.0927272 0.36786 0.000140879 -0.197781 0.367736 0.00032149 -0.208917 0.36773 8.49082e-05 -0.150838 0.368008 0.000260474 -0.244809 0.367809 8.07606e-05 -0.150827 0.367819 3.51073e-05 -0.179835 0.367566 8.90837e-05 -0.150848 0.368035 -1.06164e-06 -0.244784 0.367813 -0.000106795 -0.208889 0.367673 7.25477e-05 -0.150804 0.367726 -0.00014655 -0.0927709 0.546223 0.000149174 -0.0547041 0.546113 7.69169e-05 -0.10282 0.546194 -3.55781e-06 -0.0547082 0.546101 0.000138905 -0.121162 0.546102 0.000215197 -0.0914153 0.546118 