<VTKFile type="UnstructuredGrid" version="1.0" byte_order="LittleEndian" header_type="UInt64">
  <UnstructuredGrid>
    <Piece NumberOfPoints="791" NumberOfCells="973">
      <PointData>
        <DataArray type="Float32" Name="displacement" NumberOfComponents="3" format="ascii" RangeMin="0" RangeMax="1.1214329954">
          -0.4151340127 4.1904400859e-05 -0.045252300799 -0.43972599506 -4.351969983e-05 -0.041670199484
          -0.44901800156 5.9977901401e-05 -0.039421100169 -0.4100779891 1.0356099665e-05 2.0330000439e-07
          -0.41513299942 -1.6591400708e-05 0.045253198594 -0.44901901484 -3.4296699596e-05 0.039421800524
          -0.43972799182 6.8731496867e-05 0.04166990146 -0.41512799263 -7.1163602115e-05 -0.045278999954
          -0.43419998884 -0.0002524080046 -0.042914099991 -0.41943699121 -6.4384097641e-05 -0.028023499995
          -0.41006600857 1.0569299775e-05 -4.8338097258e-07 -0.4342019856 0.00027810898609 0.042911298573
          -0.41512998939 9.6369498351e-05 0.045278601348 -0.41944500804 8.8380402303e-05 0.028022000566
          -0.43410000205 0.000228075005 -0.042944900692 -0.41939100623 6.7054003011e-05 -0.028029099107
          -0.43409699202 -0.00020255100389 0.042947601527 -0.41938099265 -4.3178799388e-05 0.02803019993
          -0.46397000551 -7.3251001595e-05 -0.035860199481 -0.43264499307 1.2689300092e-05 -5.1108202115e-07
          -0.46396800876 9.9653901998e-05 0.035859398544 -0.46403801441 -0.00010173099872 -0.035923499614
          -0.46404001117 0.00012820599659 0.035921599716 -0.46395999193 -4.5835800847e-05 0.035912498832
          -0.43258199096 1.2826900274e-05 5.3925100474e-07 -0.46396100521 7.2171598731e-05 -0.035910498351
          -0.40676799417 1.0332300008e-05 -1.0304000142e-07 -0.66992497444 -0.00013444600336 0.1808039993
          -0.67045801878 0.0003280150122 0.16487899423 -0.66994297504 0.00064310297603 0.18080200255
          -0.60285198689 -3.2661300793e-05 0.18816700578 -0.60295701027 0.00027331899037 0.16833800077
          -0.60288500786 0.00049957999727 0.18820500374 -0.67064398527 5.5256601627e-05 0.15880699456
          -0.60302501917 0.00011462000111 0.16085499525 -0.67068099976 -0.00039487599861 0.16865000129
          -0.60323798656 -0.0002079380065 0.17319199443 -0.67047601938 6.1121398176e-05 0.13306100667
          -0.67080700397 -0.00050876900787 0.12925900519 -0.67082697153 0.00018182699569 0.14896599948
          -0.60268700123 6.1277001805e-05 0.12883900106 -0.6028559804 -0.00040555599844 0.12410099804
          -0.60306799412 0.00012490199879 0.1486800015 -0.67001497746 -0.00026902600075 0.11709599942
          -0.60214501619 -0.0002111329959 0.10870499909 -0.67063200474 0.00020150499768 0.14897300303
          -0.60291701555 0.00018642700161 0.14864900708 -0.67065900564 0.00038231699727 0.13913999498
          -0.60284799337 0.00035301799653 0.13645100594 -0.6712859869 0.00015810699551 0.14894300699
          -0.60343700647 0.00011222699686 0.14873600006 -0.66999101639 0.00056969100842 0.11710999906
          -0.6021400094 0.0004728359927 0.10874699801 -0.67073702812 0.00087143597193 0.12926399708
          -0.60279101133 0.00073392497143 0.12409800291 -0.67116397619 0.00024270699942 0.14896200597
          -0.60331898928 0.00027000700356 0.1487569958 -0.67075097561 0.00083850702504 0.16863499582
          -0.60330998898 0.00062506197719 0.17315599322 -0.72147601843 -0.00018072000239 0.17176899314
          -0.72200202942 0.0003577680036 0.16042000055 -0.72149699926 0.00071410997771 0.17178100348
          -0.72220498323 3.8483598473e-05 0.15611700714 -0.72230398655 -0.00048024099669 0.16313800216
          -0.72196501493 6.0380698415e-05 0.13788099587 -0.72231298685 -0.00056973600294 0.13518099487
          -0.72238498926 0.00019723900186 0.14914700389 -0.72140699625 -0.00030477999826 0.12654300034
          -0.72216701508 0.00021369199385 0.1491509974 -0.72218102217 0.00041442099609 0.1421879977
          -0.72290599346 0.00018116399588 0.14914600551 -0.72138899565 0.0006258499925 0.12655800581
          -0.72224497795 0.00095780799165 0.1351840049 -0.7227820158 0.00024640798802 0.14915600419
          -0.72237300873 0.0009465769981 0.16312099993 -0.7545260191 -0.00021312599711 0.16167199612
          -0.75511801243 0.00037563499063 0.15549699962 -0.7545440197 0.00076298497152 0.16167700291
          -0.75534200668 2.861360008e-05 0.15315400064 -0.75543701649 -0.00053997000214 0.15697599947
          -0.75508397818 5.582040103e-05 0.14322000742 -0.75546902418 -0.00063177698757 0.1417440027
          -0.75553697348 0.00020426099945 0.14935800433 -0.75448399782 -0.00034175300971 0.13703200221
          -0.75530201197 0.00022096000612 0.14935900271 -0.75532197952 0.00044043699745 0.14556600153
          -0.75610297918 0.00018717900093 0.14935599267 -0.75446498394 0.00067661301 0.13704200089
          -0.75540101528 0.0010362600442 0.14174300432 -0.75597602129 0.00025405001361 0.14936199784
          -0.75550597906 0.0010188400047 0.15696699917 -0.76750600338 -0.00024015900271 0.15081399679
          -0.76812797785 0.00038623600267 0.15016800165 -0.76752400398 0.0007949959836 0.15081900358
          -0.76836901903 1.6699899788e-05 0.14993099868 -0.76847201586 -0.00058686902048 0.15033200383
          -0.76809900999 5.035959839e-05 0.14892700315 -0.76850301027 -0.00067303597461 0.14876499772
          -0.76857501268 0.00020744799986 0.14954799414 -0.76746499538 -0.00036773199099 0.14827600121
          -0.76832699776 0.00022298899421 0.14954799414 -0.76835101843 0.00045418698573 0.14916400611
          -0.76917201281 0.00019188699662 0.14954699576 -0.76744699478 0.00070542300818 0.1482809931
          -0.76843601465 0.0010825099889 0.14876100421 -0.76904302835 0.0002535879903 0.14954699576
          -0.76854002476 0.0010689999908 0.15033000708 -0.75926101208 -0.00025807801285 0.13948400319
          -0.75990098715 0.00038680998841 0.14460200071 -0.7592779994 0.00080645899288 0.1394879967
          -0.76015001535 6.1870300669e-06 0.14655700326 -0.76025497913 -0.00061506900238 0.14339399338
          -0.75987297297 4.3152598664e-05 0.15484899282 -0.76028800011 -0.00069767201785 0.1560550034
          -0.76036000252 0.00020490700263 0.14972600341 -0.75922298431 -0.00038515700726 0.15996299684
          -0.7601069808 0.00021940299484 0.14972500503 -0.76013302803 0.00045592000242 0.15288999677
          -0.76097297668 0.00019024699577 0.14972800016 -0.75920599699 0.00071507197572 0.15996199846
          -0.76022100449 0.0011003799736 0.15604799986 -0.76084297895 0.00024800599203 0.14972099662
          -0.76032197475 0.0010895200539 0.14339900017 -0.72922497988 -0.00026815399178 0.1279900074
          -0.72986602783 0.00037785101449 0.13894599676 -0.72924298048 0.00079796701903 0.12799300253
          -0.73011499643 -4.1224998313e-06 0.14312300086 -0.73022001982 -0.00062631897163 0.13635000587
          -0.72984099388 3.3933800296e-05 0.16083499789 -0.73025602102 -0.00070574699203 0.16342799366
          -0.73032701015 0.00019649899332 0.14989300072 -0.72919100523 -0.00039422500413 0.17179000378
          -0.73007297516 0.00020998400578 0.14989000559 -0.73009902239 0.00044572999468 0.15665100515
          -0.73093897104 0.00018288700085 0.14989599586 -0.72917401791 0.00070501898881 0.17178399861
          -0.7301890254 0.0010894499719 0.1634169966 -0.73080897331 0.00023651699303 0.14988200366
          -0.73028802872 0.0010821199976 0.1363620013 -0.67739498615 -0.00027079798747 0.11662799865
          -0.67802202702 0.00035930098966 0.13334999979 -0.67741298676 0.00076994200936 0.11663000286
          -0.67826402187 -1.4304499928e-05 0.13972100616 -0.67836499214 -0.00062134198379 0.12938199937
          -0.67799901962 2.254050014e-05 0.16673800349 -0.67840397358 -0.00069817801705 0.17069900036
          -0.67847198248 0.00018224799715 0.1500480026 -0.6773660183 -0.00039550999645 0.18345999718
          -0.67822402716 0.00019469899416 0.15004299581 -0.67825001478 0.00042368099093 0.16035600007
          -0.67907100916 0.00016966300609 0.15005199611 -0.67734801769 0.00067582499469 0.1834499985
          -0.67833697796 0.0010505899554 0.17068600655 -0.67894101143 0.00021918899438 0.15003199875
          -0.67843401432 0.001047299942 0.12940099835 -0.60431200266 -0.00026688099024 0.10567700118
          -0.60490900278 0.00033158200677 0.12795199454 -0.60433000326 0.00072349101538 0.10567799956
          -0.60513800383 -2.4719100111e-05 0.13643699884 -0.60523301363 -0.00060163997114 0.12266399711
          -0.60488802195 8.8171000243e-06 0.17241799831 -0.60527598858 -0.00067638698965 0.17769700289
          -0.60533899069 0.00016224000137 0.15018999577 -0.60428702831 -0.00038987700827 0.19469599426
          -0.60510098934 0.00017366200336 0.15018300712 -0.60512501001 0.00039036100497 0.16391800344
          -0.60590898991 0.00015069299843 0.15019600093 -0.60426902771 0.00062854401767 0.19468000531
          -0.605207026 0.00098549504764 0.17768000066 -0.60578101873 0.0001961060043 0.15016900003
          -0.60530298948 0.00098677305505 0.12268999964 -0.51101702452 -0.0002574659884 0.095391698182
          -0.51157301664 0.00029531499604 0.12288100272 -0.51103699207 0.00066024099942 0.095392502844
          -0.51178300381 -3.5693901737e-05 0.13334999979 -0.51186901331 -0.00056916102767 0.11635299772
          -0.51155298948 -7.3448600233e-06 0.17774699628 -0.5119150281 -0.00064227898838 0.18426300585
          -0.51197201014 0.00013674600632 0.1503199935 -0.51099699736 -0.00037843600148 0.20523999631
          -0.51174998283 0.00014713300334 0.15031200647 -0.51177102327 0.00034661500831 0.16726000607
          -0.51250302792 0.00012624199735 0.15032799542 -0.51097798347 0.00056477898033 0.20522099733
          -0.51184499264 0.00089664297411 0.18424299359 -0.51237601042 0.00016753700038 0.15029500425
          -0.51194000244 0.00090295099653 0.11638499796 -0.39900401235 -0.00024387100711 0.085994400084
          -0.39950698614 0.00025136501063 0.11824599653 -0.39902499318 0.00058233301388 0.085995003581
          -0.39969301224 -4.7606299631e-05 0.13052900136 -0.39976900816 -0.00052634999156 0.11058700085
          -0.39948898554 -2.6028599677e-05 0.18261499703 -0.39981800318 -0.00059822201729 0.19026100636
          -0.39986801147 0.00010615000065 0.15043699741 -0.39899000525 -0.00036254699808 0.2148720026
          -0.39966601133 0.00011550100317 0.15042799711 -0.39968198538 0.00029360299231 0.17031100392
          -0.40034800768 9.6693802334e-05 0.15044599771 -0.39896899462 0.00048662000336 0.21484899521
          -0.39974701405 0.00078725401545 0.19023700058 -0.40022400022 0.0001338699949 0.15040799975
          -0.39984101057 0.00079898198601 0.11062499881 -0.27014499903 -0.00022764199821 0.077665798366
          -0.27058601379 0.00020079599926 0.11413799971 -0.27016800642 0.00049236702034 0.077666498721
          -0.27074500918 -6.0875299823e-05 0.12802900374 -0.27080801129 -0.00047610499314 0.10547699779
          -0.27057000995 -4.7302499297e-05 0.18693199754 -0.2708620131 -0.00054702698253 0.19557799399
          -0.27090299129 7.09533997e-05 0.15054300427 -0.27013599873 -0.00034381099977 0.22340999544
          -0.27072399855 7.9266501416e-05 0.15053200722 -0.2707349956 0.00023273999977 0.17301799357
          -0.27132499218 6.2548198912e-05 0.15055300295 -0.27011400461 0.00039661399205 0.22338399291
          -0.27078899741 0.00066122598946 0.19555099308 -0.27120399475 9.5600800705e-05 0.1505099982
          -0.27088201046 0.00067867402686 0.10552000254 -0.12660899758 -0.00021054700483 0.070538900793
          -0.12698200345 0.00014484699932 0.11062300205 -0.12663300335 0.00039334199391 0.070540100336
          -0.1271110028 -7.5972297054e-05 0.12589000165 -0.1271609962 -0.00042175000999 0.10110600293
          -0.12696899474 -7.1234397183e-05 0.19063100219 -0.12721900642 -0.00049191899598 0.20013299584
          -0.12725099921 3.1739000406e-05 0.15063500404 -0.12660500407 -0.00032405700767 0.23072099686
          -0.12709599733 3.9012698835e-05 0.15062400699 -0.12710300088 0.00016566600243 0.17533800006
          -0.12760899961 2.4387900339e-05 0.15064699948 -0.12658199668 0.00029770098627 0.23069299757
          -0.12714399397 0.00052305002464 0.20010299981 -0.12749099731 5.3314699471e-05 0.15060000122
          -0.12723599374 0.00054641999304 0.10115200281 0.029235400259 -0.00019456399605 0.064692400396
          0.028931999579 8.4888699348e-05 0.10774099827 0.029209900647 0.00028859698796 0.064694397151
          0.028834799305 -9.3430702691e-05 0.12413799763 0.028798600659 -0.00036699799239 0.097521401942
          0.028943799436 -9.7907497548e-05 0.19367299974 0.028736900538 -0.00043649799773 0.20387600362
          0.028713399544 -1.084969972e-05 0.15071600676 0.029233599082 -0.00030533300014 0.23672699928
          0.028842700645 -4.6162999752e-06 0.15070299804 0.028842100874 9.4203198387e-05 0.1772480011
          0.028421500698 -1.7145099264e-05 0.15072800219 0.029258800671 0.0001931470033 0.23669800162
          0.028812900186 0.00037772601354 0.20384299755 0.028536800295 7.6535598055e-06 0.15067799389
          0.028722200543 0.00040710400208 0.097570702434 0.1949249953 -0.00018186599482 0.060145199299
          0.19469100237 2.2382799216e-05 0.10549999774 0.1948979944 0.00018172399723 0.060148499906
          0.19462500513 -0.00011385400285 0.12277899683 0.19460199773 -0.00031590499566 0.094736300409
          0.19470100105 -0.00012743800471 0.19604900479 0.19453600049 -0.00038469801075 0.20679600537
          0.1945219934 -5.6141001551e-05 0.15078400075 0.19491699338 -0.00028988698614 0.24140800536
          0.1946260035 -5.094809967e-05 0.15077100694 0.19463099539 2.029909956e-05 0.17874099314
          0.19429600239 -6.1380102125e-05 0.15079699457 0.19494399428 8.6471300165e-05 0.2413789928
          0.19461399317 0.0002306529932 0.20676100254 0.19440799952 -4.0711500333e-05 0.15074400604
          0.19452400506 0.00026600601268 0.094787500799 0.36801800132 -0.00017481300165 0.056852601469
          0.36785000563 -4.11582987e-05 0.10387899727 0.36798998713 7.6505501056e-05 0.056857701391
          0.36781299114 -0.00013793900143 0.12179700285 0.36780300736 -0.00027283400414 0.09272249788
          0.36785799265 -0.00015999999596 0.19778099656 0.36773300171 -0.00034075300209 0.20892100036
          0.36772799492 -0.00010346499766 0.15083999932 0.36800599098 -0.00028015999123 0.24481000006
          0.36780801415 -9.9313896499e-05 0.15082600713 0.36781799793 -5.40145993e-05 0.17983199656
          0.36756300926 -0.00010764999752 0.15085299313 0.36803400517 -1.8625400116e-05 0.2447810024
          0.36781299114 8.7530897872e-05 0.2088830024 0.36767199636 -9.1113601229e-05 0.15079799294
          0.36772400141 0.00012869499915 0.092774599791 0.54622101784 -0.00017592399672 0.054702199996
          0.54610997438 -0.00010424100037 0.10282000154 0.54619199038 -2.319270061e-05 0.054709501565
          0.54609799385 -0.00016644899733 0.12115900218 0.54610002041 -0.00024239000049 0.091410599649
          0.54611599445 -0.00019582700043 0.19892600179 0.54602700472 -0.00030913099181 0.21031999588
          0.54602897167 -0.000152195993 0.15088300407 0.54620301723 -0.00027875401429 0.24704399705
          0.54608798027 -0.00014908300363 0.15086899698 0.54610198736 -0.00012670499564 0.1805550009
          0.54591798782 -0.00015532500402 0.15089599788 0.54623299837 -0.0001183600034 0.24701699615
          0.54610699415 -4.5775101171e-05 0.21028000116 0.54602402449 -0.0001429230033 0.15083999932
          0.5460190177 9.00852001e-07 0.091462500393 0.72751301527 -0.00018795600045 0.053511299193
          0.72744697332 -0.00016535300529 0.10223399848 0.72748202085 -0.00011341599748 0.053521398455
          0.72745597363 -0.00020037399372 0.12080799788 0.72746598721 -0.00022950800485 0.090687699616
          0.72745102644 -0.00023531599436 0.19957399368 0.72738999128 -0.00029466100386 0.21110500395
          0.72739797831 -0.00020177499391 0.15091399848 0.72749000788 -0.00028852099786 0.24829399586
          0.72743999958 -0.00019969799905 0.15089899302 0.72745800018 -0.00019567500567 0.18096700311
          0.72733098269 -0.00020386899996 0.1509270072 0.72752100229 -0.00020885199774 0.24826900661
          0.727470994 -0.00016318800044 0.21106399596 0.72743499279 -0.00019556800544 0.15086999536
          0.72738498449 -0.00011146599718 0.090738601983 0.91027897596 -0.00021361399558 0.053026601672
          0.91024297476 -0.00022326200269 0.10199099779 0.91024798155 -0.00019047400565 0.053040601313
          0.91026502848 -0.00024056299299 0.12066499889 0.9102820158 -0.0002390419977 0.090397402644
          0.91024500132 -0.00027876600507 0.19985300303 0.91020202637 -0.00030177799636 0.21143500507
          0.91021597385 -0.0002516900131 0.15093199909 0.91025197506 -0.00031214900082 0.24881100655
          0.9102460146 -0.00025071398704 0.1509180069 0.91026598215 -0.00025929301046 0.18114699423
          0.91017699242 -0.00025266699959 0.15094600618 0.91028302908 -0.00028660500539 0.24878999591
          0.91028499603 -0.00025924301008 0.21139000356 0.91027897596 -0.00024877500255 0.15088799596
          0.91019999981 -0.00020280499302 0.090446196496 1.0934499502 -0.00025604400435 0.052920401096
          1.0934200287 -0.00027664200752 0.10193499923 1.0934200287 -0.00025047900272 0.052936900407
          1.0934499502 -0.00028822099557 0.12063200027 1.0934699774 -0.0002761700016 0.090335801244
          1.0934300423 -0.00032723299228 0.1999219954 1.0933899879 -0.00033718798659 0.21151100099
          1.0934000015 -0.00030216798768 0.15093800426 1.0934200287 -0.00035360999755 0.24892799556
          1.0934300423 -0.00030183501076 0.15092399716 1.0934499502 -0.00031491101254 0.18119199574
          1.0933799744 -0.00030251799035 0.15095299482 1.0934499502 -0.00034720200347 0.24890899658
          1.0934699774 -0.00032639800338 0.21146500111 1.093479991 -0.0003011529916 0.1508949995
          1.0933899879 -0.00026758800959 0.090383097529 -0.48981401324 -3.6728899431e-05 0.15584300458
          -0.50383901596 0.00020504200074 0.13790200651 -0.48985499144 0.00036252601421 0.15583400428
          -0.5092099905 5.9712700022e-05 0.13111799955 -0.50059998035 -0.00016344299365 0.14235900342
          -0.53182297945 5.2109298849e-05 0.10203000158 -0.53522998095 -0.00023964200227 0.097788400948
          -0.51793700457 0.0001135670027 0.12003800273 -0.54559499025 -0.00013448600657 0.083832003176
          -0.51785701513 0.00013265399321 0.11999999732 -0.52651101351 0.0002312239958 0.10892599821
          -0.5181210041 0.00013227699674 0.12018500268 -0.54558998346 0.00032563600689 0.083876803517
          -0.53516101837 0.00047915100004 0.097804702818 -0.51801097393 0.00013979400683 0.1201979965
          -0.50067800283 0.00046341700363 0.14233100414 -0.48776200414 2.8548500268e-05 0.030153600499
          -0.49356299639 -5.9195001086e-05 0.028838999569 -0.51162797213 -4.9302900152e-05 0.024383399636
          -0.46389600635 4.1642499127e-05 0.035863999277 -0.47868299484 4.4565498683e-05 0.032340198755
          -0.51156699657 0.00012453799718 0.024402400479 -0.49349799752 0.00014737600577 0.028844499961
          -0.60285300016 6.9130102929e-05 -0.18816700578 -0.60295802355 -0.00023752299603 -0.16833899915
          -0.60288500786 -0.00046311799088 -0.18820700049 -0.669927001 0.00017381100042 -0.1808039993
          -0.67045998573 -0.00028919699253 -0.16488100588 -0.66994398832 -0.00060373998713 -0.18080300093
          -0.60302597284 -7.9042598372e-05 -0.16085499525 -0.67064601183 -1.6657499145e-05 -0.15880699456
          -0.60324001312 0.00024391000625 -0.17319199443 -0.67068302631 0.00043379599811 -0.16864900291
          -0.60268801451 -2.648050031e-05 -0.12883999944 -0.6028559804 0.0004401569895 -0.12410300225
          -0.60306799412 -8.9643501269e-05 -0.14868199825 -0.67047697306 -2.3422100639e-05 -0.13306200504
          -0.67080801725 0.00054633198306 -0.12926100194 -0.67082798481 -0.00014358099725 -0.14896799624
          -0.60214602947 0.00024540998857 -0.10870599747 -0.67001700401 0.0003061919997 -0.1170969978
          -0.60291802883 -0.00015112399706 -0.14865000546 -0.67063397169 -0.00016325799515 -0.14897400141
          -0.60285001993 -0.00031805300387 -0.13644999266 -0.6706609726 -0.00034441499156 -0.13913999498
          -0.60343700647 -7.6990203524e-05 -0.14873899519 -0.6712859869 -0.00011988799815 -0.14894500375
          -0.60214102268 -0.00043855898548 -0.10874699801 -0.66999298334 -0.00053253199439 -0.11710999906
          -0.60279297829 -0.00069929898018 -0.12409699708 -0.67074000835 -0.0008338909829 -0.1292629987
          -0.60332101583 -0.0002347700065 -0.14875599742 -0.67116701603 -0.00020448899886 -0.14896099269
          -0.60330998898 -0.00058908900246 -0.17315800488 -0.67075198889 -0.00079959601862 -0.16863699257
          -0.72147798538 0.00022229499882 -0.17177000642 -0.72200298309 -0.00031677199877 -0.16042099893
          -0.72149801254 -0.00067253998714 -0.17178200185 -0.72220802307 2.2919600724e-06 -0.15611800551
          -0.72230702639 0.00052135402802 -0.16313800216 -0.72196698189 -2.0487599613e-05 -0.13788199425
          -0.72231501341 0.00060947798193 -0.13518300653 -0.72238600254 -0.00015681200603 -0.14914800227
          -0.72140800953 0.00034413801041 -0.12654399872 -0.72216898203 -0.00017325300723 -0.14915199578
          -0.7221840024 -0.00037433000398 -0.1421879977 -0.72290700674 -0.00014076700609 -0.14914800227
          -0.72139102221 -0.00058649800485 -0.12655800581 -0.72224801779 -0.00091807497665 -0.1351840049
          -0.72278600931 -0.00020601200231 -0.14915600419 -0.72237402201 -0.0009054740076 -0.16312199831
          -0.75452899933 0.00025602101232 -0.16167299449 -0.75511997938 -0.00033331901068 -0.155497998
          -0.75454598665 -0.00072009500582 -0.16167800128 -0.75534498692 1.3480100279e-05 -0.15315499902
          -0.75544101 0.00058239599457 -0.15697599947 -0.75508600473 -1.4614700376e-05 -0.1432210058
          -0.75546997786 0.0006728299777 -0.14174500108 -0.75553900003 -0.00016251999477 -0.14935900271
          -0.75448602438 0.00038242599112 -0.13703300059 -0.75530397892 -0.00017920699611 -0.14935900271
          -0.75532501936 -0.00039903298602 -0.14556699991 -0.75610399246 -0.00014547299361 -0.14935800433
          -0.75446802378 -0.00063594797393 -0.13704200089 -0.75540500879 -0.00099522003438 -0.1417440027
          -0.7559800148 -0.0002123430022 -0.14936199784 -0.75550699234 -0.0009764250135 -0.15696899593
          -0.76750898361 0.0002833979961 -0.15081499517 -0.76813000441 -0.00034357901313 -0.15016900003
          -0.76752597094 -0.00075176102109 -0.15082000196 -0.76837199926 2.5732499125e-05 -0.14993199706
          -0.76847600937 0.00062963500386 -0.15033300221 -0.76810199022 -8.8163096734e-06 -0.14892700315
          -0.76850497723 0.00071442400804 -0.14876499772 -0.76857697964 -0.00016537000192 -0.14954799414
          -0.76746702194 0.00040874100523 -0.14827699959 -0.76832997799 -0.00018089800142 -0.14954900742
          -0.76835399866 -0.00041244699969 -0.14916400611 -0.76917302608 -0.00014984600421 -0.14954799414
          -0.76744997501 -0.00066442100797 -0.1482809931 -0.76843899488 -0.0010411300464 -0.14876200259
          -0.76904702187 -0.00021154599381 -0.14954699576 -0.76854199171 -0.0010262399446 -0.15033100545
          -0.75926399231 0.00030061299913 -0.13948500156 -0.75990402699 -0.0003448589996 -0.14460200071
          -0.75928097963 -0.00076392898336 -0.13948899508 -0.76015299559 3.5537399526e-05 -0.14655800164
          -0.76025801897 0.00065712799551 -0.14339600503 -0.7598760128 -2.3198699637e-06 -0.15484899282
          -0.76029002666 0.00073834799696 -0.1560550034 -0.76036202908 -0.00016353800311 -0.14972700179
          -0.75922602415 0.00042545600445 -0.15996299684 -0.76010900736 -0.00017801999638 -0.14972500503
          -0.76013600826 -0.00041489000432 -0.15289099514 -0.76097398996 -0.00014891699539 -0.14972800016
          -0.75920897722 -0.00067478098208 -0.15996299684 -0.760224998 -0.0010597100481 -0.15604999661
          -0.76084601879 -0.00020667500212 -0.149721995 -0.76032400131 -0.0010474700248 -0.14339900017
          -0.72922801971 0.00030889699701 -0.12799200416 -0.72986900806 -0.00033769500442 -0.13894699514
          -0.72924500704 -0.00075722899055 -0.12799300253 -0.73011797667 4.4052001613e-05 -0.14312399924
          -0.73022300005 0.00066658301512 -0.13635200262 -0.72984302044 5.1016299949e-06 -0.16083599627
          -0.7302569747 0.0007446249947 -0.16342699528 -0.73032897711 -0.00015692600573 -0.14989300072
          -0.72919398546 0.00043272500625 -0.17179000378 -0.73007500172 -0.00017039700469 -0.14989100397
          -0.73010200262 -0.00040649701259 -0.15665200353 -0.7309409976 -0.00014335299784 -0.14989599586
          -0.72917699814 -0.00066652597161 -0.17178499699 -0.73019200563 -0.0010505899554 -0.16341899335
          -0.73081302643 -0.00019698200049 -0.14988400042 -0.73028898239 -0.0010418699821 -0.1363620013
          -0.67739802599 0.00030865200097 -0.11662899703 -0.67802399397 -0.00032203498995 -0.13334999979
          -0.67741501331 -0.00073209201219 -0.11663000286 -0.67826700211 5.1343700761e-05 -0.13972200453
          -0.67836898565 0.00065871700644 -0.12938399613 -0.67800098658 1.3601899809e-05 -0.16673900187
          -0.67840600014 0.00073416199302 -0.17069900036 -0.67847400904 -0.0001455659949 -0.15004700422
          -0.67736798525 0.00043111399282 -0.18346099555 -0.67822599411 -0.00015800399706 -0.15004299581
          -0.67825299501 -0.00038733999827 -0.16035699844 -0.67907202244 -0.00013302000298 -0.15005099773
          -0.67735099792 -0.00064022798324 -0.18345099688 -0.6783400178 -0.0010146199493 -0.1706880033
          -0.67894399166 -0.00018254500173 -0.15003499389 -0.6784350276 -0.0010099300416 -0.12939999998
          -0.60431402922 0.00030076899566 -0.10567799956 -0.60491102934 -0.00029828198603 -0.12795299292
          -0.60433197021 -0.00068960600765 -0.10567799956 -0.60514098406 5.7793098676e-05 -0.1364389956
          -0.60523599386 0.00063505099388 -0.1226669997 -0.6048899889 2.3357299142e-05 -0.17241799831
          -0.60527700186 0.00070840399712 -0.17769600451 -0.60534000397 -0.00012952400721 -0.15018899739
          -0.60428899527 0.0004215099907 -0.19469599426 -0.60510402918 -0.00014093299978 -0.1501840055
          -0.60512799025 -0.00035798599129 -0.1639200002 -0.60591000319 -0.00011801400251 -0.15019400418
          -0.60427099466 -0.00059691700153 -0.19468200207 -0.60521000624 -0.00095348700415 -0.1776829958
          -0.60578399897 -0.00016342499293 -0.15017299354 -0.60530400276 -0.00095337000675 -0.12268900126
          -0.51101899147 0.0002863619884 -0.095393203199 -0.51157397032 -0.00026700700982 -0.12288100272
          -0.51103800535 -0.00063134898664 -0.095392003655 -0.51178497076 6.3776002207e-05 -0.13335199654
          -0.51187199354 0.00059758202406 -0.1163560003 -0.51155501604 3.4524400689e-05 -0.17774799466
          -0.51191598177 0.0006693030009 -0.18426199257 -0.51197302341 -0.00010902200302 -0.15031899512
          -0.51099902391 0.00040507200174 -0.20523999631 -0.51175200939 -0.00011939700198 -0.15031200647
          -0.51177299023 -0.0003192340082 -0.16726200283 -0.51250302792 -9.8551397969e-05 -0.15032500029
          -0.51098001003 -0.00053814798594 -0.20522199571 -0.51184797287 -0.00086962699424 -0.18424600363
          -0.51237899065 -0.00013984600082 -0.15029899776 -0.51194000244 -0.00087453698507 -0.11638399959
          -0.3990060091 0.00026681899908 -0.085996001959 -0.39950799942 -0.00022900299518 -0.11824599653
          -0.39902600646 -0.00055938900914 -0.085994303226 -0.39969500899 6.9741996413e-05 -0.13053099811
          -0.39977100492 0.00054882600671 -0.11059000343 -0.39948999882 4.7258799896e-05 -0.18261599541
          -0.39981898665 0.00061929802177 -0.1902589947 -0.39986899495 -8.4372200945e-05 -0.15043599904
          -0.39899098873 0.00038323100307 -0.21487100422 -0.39966699481 -9.3712602393e-05 -0.15042899549
          -0.39968401194 -0.00027216901071 -0.17031399906 -0.40034800768 -7.4946299719e-05 -0.15044400096
          -0.39897099137 -0.00046594100422 -0.21485100687 -0.3997490108 -0.00076618499588 -0.1902409941
          -0.40022599697 -0.00011212199752 -0.15041300654 -0.39984101057 -0.00077651202446 -0.11062200367
          -0.27014601231 0.00024377999944 -0.077667497098 -0.27058699727 -0.00018524299958 -0.11413799971
          -0.27016800642 -0.00047623101273 -0.077665701509 -0.27074599266 7.6203301433e-05 -0.12803100049
          -0.27081000805 0.00049177499022 -0.10548099875 -0.27057099342 6.1721897509e-05 -0.18693299592
          -0.2708620131 0.000561295019 -0.19557599723 -0.27090400457 -5.5982800404e-05 -0.15054099262
          -0.27013599873 0.00035767999361 -0.22340899706 -0.27072399855 -6.4286403358e-05 -0.1505330056
          -0.27073699236 -0.00021811500483 -0.17302000523 -0.27132499218 -4.7604298743e-05 -0.15054999292
          -0.27011498809 -0.00038275000406 -0.22338600457 -0.27079099417 -0.00064696400659 -0.1955550015
          -0.27120599151 -8.0656500359e-05 -0.15051500499 -0.27088099718 -0.00066300900653 -0.10551699996
          -0.12660899758 0.00021912199736 -0.070540696383 -0.12698300183 -0.00013685500016 -0.11062300205
          -0.12663300335 -0.00038477001362 -0.070539101958 -0.12711200118 8.3740196715e-05 -0.12589299679
          -0.12716199458 0.00042986200424 -0.10110999644 -0.12696899474 7.809069939e-05 -0.19063200057
          -0.12721799314 0.00049862702144 -0.20013000071 -0.12725099921 -2.4327899155e-05 -0.15063400567
          -0.12660500407 0.0003303590056 -0.23072099686 -0.12709699571 -3.1593699532e-05 -0.15062500536
          -0.12710300088 -0.00015860199346 -0.17534099519 -0.12760800123 -1.6999299987e-05 -0.15064300597