<?xml version="1.0"?>
<!--Shaheen-->
<VTKFile type="UnstructuredGrid" version="0.1" byte_order="LittleEndian">
  <UnstructuredGrid>
    <Piece NumberOfPoints="791" NumberOfCells="973">
      <Points>
        <DataArray type="Float32" NumberOfComponents="3" format="ascii">
-0.190211 -0.0618034 -0.866203 -0.17591 0.0347644 -0.761951 -0.166717 -0.0910144 -0.722131 0 -0.0768927 -0.886453 0.190211 -0.0618034 -0.866203 0.166717 -0.0910144 -0.722131 0.17591 0.0347644 -0.761951 -0.190211 0.0618034 -0.866203 -0.181592 0.2 -0.786562 -0.117557 0.161803 -0.847614 0 0.0768927 -0.886453 0.181592 0.2 -0.786562 0.190211 0.0618034 -0.866203 0.117557 0.161803 -0.847614 -0.181592 -0.2 -0.786562 -0.117557 -0.161803 -0.847614 0.181592 -0.2 -0.786562 0.117557 -0.161803 -0.847614 -0.151842 0.1125 -0.6577 0 0.2 -0.792573 0.151842 0.1125 -0.6577 -0.151842 0.225 -0.6577 0.151842 0.225 -0.6577 0.151842 -0.225 -0.6577 0 -0.2 -0.792573 -0.151842 -0.225 -0.6577 0 -7.38343e-17 -0.9 0.888988 -0.0695288 0.4 0.781994 0.0347644 0.4 0.888988 0.0695288 0.4 0.888988 -0.0695288 2.2226e-15 0.781994 0.0347644 2.2357e-15 0.888988 0.0695288 2.2226e-15 0.741126 -0.0910144 0.4 0.741126 -0.0910144 2.24071e-15 0.807252 -0.182029 0.4 0.807252 -0.182029 2.23261e-15 0.568006 0.0347644 0.4 0.542748 0.182029 0.4 0.675 0.1125 0.4 0.568006 0.0347644 2.26191e-15 0.542748 0.182029 2.265e-15 0.675 0.1125 2.2488e-15 0.461012 0.0695288 0.4 0.461012 0.0695288 2.27501e-15 0.675 0 0.4 0.675 0 2.2488e-15 0.608874 -0.0910144 0.4 0.608874 -0.0910144 2.2569e-15 0.675 0.225 0.4 0.675 0.225 2.2488e-15 0.461012 -0.0695288 0.4 0.461012 -0.0695288 2.27501e-15 0.542748 -0.182029 0.4 0.542748 -0.182029 2.265e-15 0.675 -0.225 0.4 0.675 -0.225 2.2488e-15 0.807252 0.182029 0.4 0.807252 0.182029 2.23261e-15 0.888988 -0.0695288 0.8 0.781994 0.0347644 0.8 0.888988 0.0695288 0.8 0.741126 -0.0910144 0.8 0.807252 -0.182029 0.8 0.568006 0.0347644 0.8 0.542748 0.182029 0.8 0.675 0.1125 0.8 0.461012 0.0695288 0.8 0.675 0 0.8 0.608874 -0.0910144 0.8 0.675 0.225 0.8 0.461012 -0.0695288 0.8 0.542748 -0.182029 0.8 0.675 -0.225 0.8 0.807252 0.182029 0.8 0.888988 -0.0695288 1.2 0.781994 0.0347644 1.2 0.888988 0.0695288 1.2 0.741126 -0.0910144 1.2 0.807252 -0.182029 1.2 0.568006 0.0347644 1.2 0.542748 0.182029 1.2 0.675 0.1125 1.2 0.461012 0.0695288 1.2 0.675 0 1.2 0.608874 -0.0910144 1.2 0.675 0.225 1.2 0.461012 -0.0695288 1.2 0.542748 -0.182029 1.2 0.675 -0.225 1.2 0.807252 0.182029 1.2 0.888988 -0.0695288 1.6 0.781994 0.0347644 1.6 0.888988 0.0695288 1.6 0.741126 -0.0910144 1.6 0.807252 -0.182029 1.6 0.568006 0.0347644 1.6 0.542748 0.182029 1.6 0.675 0.1125 1.6 0.461012 0.0695288 1.6 0.675 0 1.6 0.608874 -0.0910144 1.6 0.675 0.225 1.6 0.461012 -0.0695288 1.6 0.542748 -0.182029 1.6 0.675 -0.225 1.6 0.807252 0.182029 1.6 0.888988 -0.0695288 2 0.781994 0.0347644 2 0.888988 0.0695288 2 0.741126 -0.0910144 2 0.807252 -0.182029 2 0.568006 0.0347644 2 0.542748 0.182029 2 0.675 0.1125 2 0.461012 0.0695288 2 0.675 0 2 0.608874 -0.0910144 2 0.675 0.225 2 0.461012 -0.0695288 2 0.542748 -0.182029 2 0.675 -0.225 2 0.807252 0.182029 2 0.888988 -0.0695288 2.4 0.781994 0.0347644 2.4 0.888988 0.0695288 2.4 0.741126 -0.0910144 2.4 0.807252 -0.182029 2.4 0.568006 0.0347644 2.4 0.542748 0.182029 2.4 0.675 0.1125 2.4 0.461012 0.0695288 2.4 0.675 0 2.4 0.608874 -0.0910144 2.4 0.675 0.225 2.4 0.461012 -0.0695288 2.4 0.542748 -0.182029 2.4 0.675 -0.225 2.4 0.807252 0.182029 2.4 0.888988 -0.0695288 2.8 0.781994 0.0347644 2.8 0.888988 0.0695288 2.8 0.741126 -0.0910144 2.8 0.807252 -0.182029 2.8 0.568006 0.0347644 2.8 0.542748 0.182029 2.8 0.675 0.1125 2.8 0.461012 0.0695288 2.8 0.675 0 2.8 0.608874 -0.0910144 2.8 0.675 0.225 2.8 0.461012 -0.0695288 2.8 0.542748 -0.182029 2.8 0.675 -0.225 2.8 0.807252 0.182029 2.8 0.888988 -0.0695288 3.2 0.781994 0.0347644 3.2 0.888988 0.0695288 3.2 0.741126 -0.0910144 3.2 0.807252 -0.182029 3.2 0.568006 0.0347644 3.2 0.542748 0.182029 3.2 0.675 0.1125 3.2 0.461012 0.0695288 3.2 0.675 0 3.2 0.608874 -0.0910144 3.2 0.675 0.225 3.2 0.461012 -0.0695288 3.2 0.542748 -0.182029 3.2 0.675 -0.225 3.2 0.807252 0.182029 3.2 0.888988 -0.0695288 3.6 0.781994 0.0347644 3.6 0.888988 0.0695288 3.6 0.741126 -0.0910144 3.6 0.807252 -0.182029 3.6 0.568006 0.0347644 3.6 0.542748 0.182029 3.6 0.675 0.1125 3.6 0.461012 0.0695288 3.6 0.675 0 3.6 0.608874 -0.0910144 3.6 0.675 0.225 3.6 0.461012 -0.0695288 3.6 0.542748 -0.182029 3.6 0.675 -0.225 3.6 0.807252 0.182029 3.6 0.888988 -0.0695288 4 0.781994 0.0347644 4 0.888988 0.0695288 4 0.741126 -0.0910144 4 0.807252 -0.182029 4 0.568006 0.0347644 4 0.542748 0.182029 4 0.675 0.1125 4 0.461012 0.0695288 4 0.675 0 4 0.608874 -0.0910144 4 0.675 0.225 4 0.461012 -0.0695288 4 0.542748 -0.182029 4 0.675 -0.225 4 0.807252 0.182029 4 0.888988 -0.0695288 4.4 0.781994 0.0347644 4.4 0.888988 0.0695288 4.4 0.741126 -0.0910144 4.4 0.807252 -0.182029 4.4 0.568006 0.0347644 4.4 0.542748 0.182029 4.4 0.675 0.1125 4.4 0.461012 0.0695288 4.4 0.675 0 4.4 0.608874 -0.0910144 4.4 0.675 0.225 4.4 0.461012 -0.0695288 4.4 0.542748 -0.182029 4.4 0.675 -0.225 4.4 0.807252 0.182029 4.4 0.888988 -0.0695288 4.8 0.781994 0.0347644 4.8 0.888988 0.0695288 4.8 0.741126 -0.0910144 4.8 0.807252 -0.182029 4.8 0.568006 0.0347644 4.8 0.542748 0.182029 4.8 0.675 0.1125 4.8 0.461012 0.0695288 4.8 0.675 0 4.8 0.608874 -0.0910144 4.8 0.675 0.225 4.8 0.461012 -0.0695288 4.8 0.542748 -0.182029 4.8 0.675 -0.225 4.8 0.807252 0.182029 4.8 0.888988 -0.0695288 5.2 0.781994 0.0347644 5.2 0.888988 0.0695288 5.2 0.741126 -0.0910144 5.2 0.807252 -0.182029 5.2 0.568006 0.0347644 5.2 0.542748 0.182029 5.2 0.675 0.1125 5.2 0.461012 0.0695288 5.2 0.675 0 5.2 0.608874 -0.0910144 5.2 0.675 0.225 5.2 0.461012 -0.0695288 5.2 0.542748 -0.182029 5.2 0.675 -0.225 5.2 0.807252 0.182029 5.2 0.888988 -0.0695288 5.6 0.781994 0.0347644 5.6 0.888988 0.0695288 5.6 0.741126 -0.0910144 5.6 0.807252 -0.182029 5.6 0.568006 0.0347644 5.6 0.542748 0.182029 5.6 0.675 0.1125 5.6 0.461012 0.0695288 5.6 0.675 0 5.6 0.608874 -0.0910144 5.6 0.675 0.225 5.6 0.461012 -0.0695288 5.6 0.542748 -0.182029 5.6 0.675 -0.225 5.6 0.807252 0.182029 5.6 0.888988 -0.0695288 6 0.781994 0.0347644 6 0.888988 0.0695288 6 0.741126 -0.0910144 6 0.807252 -0.182029 6 0.568006 0.0347644 6 0.542748 0.182029 6 0.675 0.1125 6 0.461012 0.0695288 6 0.675 0 6 0.608874 -0.0910144 6 0.675 0.225 6 0.461012 -0.0695288 6 0.542748 -0.182029 6 0.675 -0.225 6 0.807252 0.182029 6 0.888988 -0.0695288 6.4 0.781994 0.0347644 6.4 0.888988 0.0695288 6.4 0.741126 -0.0910144 6.4 0.807252 -0.182029 6.4 0.568006 0.0347644 6.4 0.542748 0.182029 6.4 0.675 0.1125 6.4 0.461012 0.0695288 6.4 0.675 0 6.4 0.608874 -0.0910144 6.4 0.675 0.225 6.4 0.461012 -0.0695288 6.4 0.542748 -0.182029 6.4 0.675 -0.225 6.4 0.807252 0.182029 6.4 0.888988 -0.0695288 6.8 0.781994 0.0347644 6.8 0.888988 0.0695288 6.8 0.741126 -0.0910144 6.8 0.807252 -0.182029 6.8 0.568006 0.0347644 6.8 0.542748 0.182029 6.8 0.675 0.1125 6.8 0.461012 0.0695288 6.8 0.675 0 6.8 0.608874 -0.0910144 6.8 0.675 0.225 6.8 0.461012 -0.0695288 6.8 0.542748 -0.182029 6.8 0.675 -0.225 6.8 0.807252 0.182029 6.8 0.888988 -0.0695288 7.2 0.781994 0.0347644 7.2 0.888988 0.0695288 7.2 0.741126 -0.0910144 7.2 0.807252 -0.182029 7.2 0.568006 0.0347644 7.2 0.542748 0.182029 7.2 0.675 0.1125 7.2 0.461012 0.0695288 7.2 0.675 0 7.2 0.608874 -0.0910144 7.2 0.675 0.225 7.2 0.461012 -0.0695288 7.2 0.542748 -0.182029 7.2 0.675 -0.225 7.2 0.807252 0.182029 7.2 0.888988 -0.0695288 7.6 0.781994 0.0347644 7.6 0.888988 0.0695288 7.6 0.741126 -0.0910144 7.6 0.807252 -0.182029 7.6 0.568006 0.0347644 7.6 0.542748 0.182029 7.6 0.675 0.1125 7.6 0.461012 0.0695288 7.6 0.675 0 7.6 0.608874 -0.0910144 7.6 0.675 0.225 7.6 0.461012 -0.0695288 7.6 0.542748 -0.182029 7.6 0.675 -0.225 7.6 0.807252 0.182029 7.6 0.695729 -0.0695288 -0.553408 0.611995 0.0347644 -0.486803 0.695729 0.0695288 -0.553408 0.580011 -0.0910144 -0.461362 0.631762 -0.182029 -0.502526 0.444526 0.0347644 -0.353592 0.424759 0.182029 -0.337869 0.528261 0.1125 -0.420197 0.360792 0.0695288 -0.286987 0.528261 0 -0.420197 0.47651 -0.0910144 -0.379033 0.528261 0.225 -0.420197 0.360792 -0.0695288 -0.286987 0.424759 -0.182029 -0.337869 0.528261 -0.225 -0.420197 0.631762 0.182029 -0.502526 0.127774 0.0347644 -0.553448 0.122092 0.182029 -0.528838 0.103705 0.0695288 -0.449197 0.151842 0 -0.6577 0.136967 -0.0910144 -0.593269 0.103705 -0.0695288 -0.449197 0.122092 -0.182029 -0.528838 -0.888988 -0.0695288 2.2226e-15 -0.781994 0.0347644 2.2357e-15 -0.888988 0.0695288 2.2226e-15 -0.888988 -0.0695288 0.4 -0.781994 0.0347644 0.4 -0.888988 0.0695288 0.4 -0.741126 -0.0910144 2.24071e-15 -0.741126 -0.0910144 0.4 -0.807252 -0.182029 2.23261e-15 -0.807252 -0.182029 0.4 -0.568006 0.0347644 2.26191e-15 -0.542748 0.182029 2.265e-15 -0.675 0.1125 2.2488e-15 -0.568006 0.0347644 0.4 -0.542748 0.182029 0.4 -0.675 0.1125 0.4 -0.461012 0.0695288 2.27501e-15 -0.461012 0.0695288 0.4 -0.675 0 2.2488e-15 -0.675 0 0.4 -0.608874 -0.0910144 2.2569e-15 -0.608874 -0.0910144 0.4 -0.675 0.225 2.2488e-15 -0.675 0.225 0.4 -0.461012 -0.0695288 2.27501e-15 -0.461012 -0.0695288 0.4 -0.542748 -0.182029 2.265e-15 -0.542748 -0.182029 0.4 -0.675 -0.225 2.2488e-15 -0.675 -0.225 0.4 -0.807252 0.182029 2.23261e-15 -0.807252 0.182029 0.4 -0.888988 -0.0695288 0.8 -0.781994 0.0347644 0.8 -0.888988 0.0695288 0.8 -0.741126 -0.0910144 0.8 -0.807252 -0.182029 0.8 -0.568006 0.0347644 0.8 -0.542748 0.182029 0.8 -0.675 0.1125 0.8 -0.461012 0.0695288 0.8 -0.675 0 0.8 -0.608874 -0.0910144 0.8 -0.675 0.225 0.8 -0.461012 -0.0695288 0.8 -0.542748 -0.182029 0.8 -0.675 -0.225 0.8 -0.807252 0.182029 0.8 -0.888988 -0.0695288 1.2 -0.781994 0.0347644 1.2 -0.888988 0.0695288 1.2 -0.741126 -0.0910144 1.2 -0.807252 -0.182029 1.2 -0.568006 0.0347644 1.2 -0.542748 0.182029 1.2 -0.675 0.1125 1.2 -0.461012 0.0695288 1.2 -0.675 0 1.2 -0.608874 -0.0910144 1.2 -0.675 0.225 1.2 -0.461012 -0.0695288 1.2 -0.542748 -0.182029 1.2 -0.675 -0.225 1.2 -0.807252 0.182029 1.2 -0.888988 -0.0695288 1.6 -0.78199
[...]
      <PointData>
        <DataArray type="Float32" Name="displacement" NumberOfComponents="3" format="ascii">
-7.72415e-05 0.447583 0.015151 0.000171519 0.473282 -0.00838884 -0.000430715 0.482897 0.0218369 1.62128e-05 0.442037 0.0188963 0.00010796 0.447579 0.0151488 0.000463172 0.482889 0.0218377 -0.000137094 0.473285 -0.00839925 9.89289e-05 0.447519 -0.0151521 0.000872836 0.4674 -0.0479784 0.000200493 0.451859 -0.0397101 1.68883e-05 0.441999 -0.0189126 -0.000838715 0.467404 -0.0479684 -6.37589e-05 0.447519 -0.0151586 -0.000163928 0.451857 -0.0397087 -0.000873249 0.46731 0.0480236 -0.000218786 0.451853 0.0396975 0.000899517 0.467301 0.0480286 0.000248493 0.451846 0.0396934 0.000630117 0.498132 -0.0267459 1.99131e-05 0.465667 -0.0488854 -0.000591283 0.498132 -0.0267383 0.00130326 0.498097 -0.0535945 -0.00126362 0.498115 -0.0535803 0.00126479 0.498121 0.0535395 1.48338e-05 0.465652 0.0489072 -0.00123651 0.498155 0.0535266 1.66934e-05 0.438586 1.93647e-05 0.00315176 0.714002 0.00962463 -0.00157178 0.709395 -0.00474188 -0.00325961 0.714015 -0.00954191 0.00307156 0.651465 0.01184 -0.00150987 0.646682 -0.00584583 -0.00313434 0.651493 -0.0117629 0.00383904 0.707548 0.0125508 0.00376349 0.644842 0.0154719 0.00799656 0.710005 0.0251301 0.00779028 0.647519 0.0310652 -0.00137437 0.700693 -0.00474643 -0.00692316 0.699274 -0.0250383 -0.0046596 0.704744 -0.0154334 -0.00133769 0.637966 -0.00593457 -0.00682463 0.636564 -0.0313249 -0.00454233 0.642033 -0.019109 -0.00252809 0.696649 -0.00954519 -0.00247966 0.633875 -0.0120307 -4.92991e-05 0.704928 3.36743e-05 -2.92573e-05 0.642182 3.35233e-05 0.00352028 0.702169 0.0125373 0.00348331 0.639448 0.0155908 -0.00926004 0.704213 -0.0309841 -0.00908637 0.641634 -0.0384811 0.00243829 0.69663 0.00959139 0.00243813 0.633865 0.0120605 0.00680842 0.699276 0.0251029 0.00675132 0.63655 0.0314049 0.00916392 0.704226 0.0310377 0.00901315 0.641642 0.0385133 -0.00808067 0.710009 -0.0250419 -0.00782894 0.647506 -0.0309456 0.00320732 0.761969 0.00682369 -0.00160562 0.757234 -0.00334222 -0.00334826 0.761991 -0.00674625 0.00384935 0.755334 0.00888305 0.00808968 0.757806 0.017804 -0.00136852 0.748471 -0.0033488 -0.0068197 0.74697 -0.0177153 -0.00466594 0.752487 -0.0109005 -0.00247113 0.744452 -0.00675609 -6.49886e-05 0.752708 3.3568e-05 0.00346558 0.749919 0.0088769 -0.00926772 0.751871 -0.0219167 0.00235321 0.744432 0.00680393 0.00667155 0.746968 0.0177845 0.00913675 0.751885 0.0219704 -0.00820162 0.757807 -0.017716 0.00325334 0.792434 0.00362564 -0.00163622 0.787657 -0.00174991 -0.00341929 0.792456 -0.00355071 0.00387484 0.785728 0.00471151 0.0081889 0.788174 0.00943554 -0.00137391 0.778865 -0.00175519 -0.00679021 0.77731 -0.00936403 -0.00469925 0.782857 -0.00574674 -0.00244739 0.774876 -0.00356304 -7.68417e-05 0.783101 3.36818e-05 0.00345047 0.780294 0.00470857 -0.00932216 0.78217 -0.0115866 0.00230645 0.774853 0.00361702 0.00661615 0.777309 0.00943284 0.00916836 0.782186 0.0116444 -0.0083222 0.788176 -0.00935437 0.00328943 0.803532 0.000144648 -0.00165825 0.79871 -1.37889e-05 -0.00347138 0.803556 -7.33045e-05 0.00389534 0.796758 0.000162917 0.0082623 0.799196 0.00032326 -0.00137698 0.789889 -1.68495e-05 -0.00676785 0.788293 -0.000250279 -0.00472243 0.793867 -0.000124959 -0.00242989 0.785912 -7.88597e-05 -8.4415e-05 0.794128 3.37027e-05 0.00344024 0.791306 0.000161242 -0.00936029 0.793131 -0.000321442 0.00227489 0.785888 0.000138514 0.00657721 0.788292 0.000318946 0.00919111 0.793149 0.000382691 -0.0084095 0.799197 -0.000247107 0.00331368 0.793882 -0.00352185 -0.00167131 0.789032 0.00181437 -0.00350299 0.793907 0.00359002 0.00391205 0.787064 -0.00462684 0.00831371 0.7895 -0.00927431 -0.00137978 0.780182 0.0018137 -0.00676522 0.778562 0.00934393 -0.00474054 0.784158 0.00579489 -0.0024234 0.776207 0.00358853 -8.78495e-05 0.784429 3.37507e-05 0.00344036 0.781595 -0.00462739 -0.00939337 0.783396 0.0115397 0.00226197 0.776182 -0.00352334 0.00656693 0.778561 -0.00927517 0.00921737 0.783414 -0.0114748 -0.00846693 0.789502 0.00934483 0.00332691 0.762731 -0.00726783 -0.00167604 0.757864 0.00368257 -0.00351495 0.762756 0.00733277 0.00392578 0.75589 -0.00952114 0.00834339 0.758331 -0.0190798 -0.00138226 0.748988 0.00368397 -0.00678039 0.747361 0.0191468 -0.0047537 0.752974 0.0118438 -0.00242715 0.745004 0.00733562 -8.71573e-05 0.753247 3.37869e-05 0.00345045 0.750404 -0.00952023 -0.00942029 0.752206 0.0236584 0.0022672 0.744979 -0.00726495 0.00658332 0.74736 -0.019078 0.00924568 0.752224 -0.0235901 -0.00849507 0.758333 0.019145 0.00332941 0.70992 -0.0109915 -0.00167252 0.70505 0.00553978 -0.00350784 0.709945 0.0110533 0.00393628 0.703076 -0.0143866 0.00835203 0.705531 -0.0288269 -0.00138432 0.696149 0.00554329 -0.00681272 0.69453 0.0288914 -0.00476181 0.700156 0.0178572 -0.00244073 0.692144 0.0110603 -8.24807e-05 0.700424 3.38228e-05 0.00346998 0.697575 -0.0143845 -0.0094412 0.699403 0.035705 0.00228985 0.692119 -0.0109844 0.00662544 0.694529 -0.0288226 0.00927596 0.69942 -0.0356334 -0.00849478 0.705532 0.028887 0.003322 0.635868 -0.0145965 -0.00166128 0.631005 0.00733804 -0.00348289 0.635892 0.0146554 0.00394392 0.629039 -0.0190976 0.0083411 0.631514 -0.0382635 -0.0013859 0.622082 0.0073435 -0.00686077 0.620486 0.0383256 -0.00476511 0.62612 0.0236795 -0.00246332 0.618046 0.0146663 -7.40086e-05 0.626376 3.38552e-05 0.00349835 0.623524 -0.0190942 -0.00945627 0.6254 0.0473678 0.00232874 0.618023 -0.0145855 0.00669143 0.620485 -0.0382567 0.00930799 0.625417 -0.0472932 -0.00846791 0.631516 0.0383188 0.00330581 0.541527 -0.017995 -0.00164295 0.536682 0.00903348 -0.00344178 0.541549 0.0180511 0.00394902 0.53473 -0.0235391 0.00831267 0.537231 -0.0471594 -0.00138687 0.527738 0.00904075 -0.00692254 0.526178 0.0472195 -0.00476386 0.531816 0.0291689 -0.00249374 0.523662 0.0180657 -6.1999e-05 0.532054 3.3885e-05 0.00353468 0.529203 -0.0235346 -0.00946578 0.531147 0.0583624 0.00238223 0.52364 -0.0179804 0.00677873 0.526177 -0.0471504 0.00934155 0.531163 -0.0582852 -0.00841694 0.537233 0.0472105 0.00328229 0.428328 -0.0211102 -0.00161834 0.423509 0.0105878 -0.00338664 0.428348 0.0211638 0.00395208 0.421578 -0.027611 0.00826933 0.42411 -0.0553137 -0.00138705 0.414547 0.0105967 -0.0069955 0.413034 0.0553722 -0.00475837 0.418673 0.0342015 -0.00253049 0.410424 0.0211816 -4.67642e-05 0.418887 3.39119e-05 0.00357786 0.416039 -0.0276055 -0.00947002 0.418068 0.0684406 0.00244823 0.410404 -0.0210924 0.00688408 0.413033 -0.0553027 0.00937628 0.418082 -0.0683611 -0.00834505 0.424111 0.0553612 0.00325321 0.298107 -0.0238793 -0.00158838 0.293323 0.0119697 -0.00331999 0.298125 0.0239306 0.00395369 0.291416 -0.0312311 0.00821425 0.293983 -0.0625617 -0.00138621 0.284344 0.0119801 -0.00707655 0.282886 0.062619 -0.00474899 0.288523 0.0386757 -0.00257176 0.280167 0.0239513 -2.86646e-05 0.28871 3.39359e-05 0.00362658 0.285867 -0.0312247 -0.00946936 0.287995 0.0773985 0.00252427 0.28015 -0.0238586 0.0070036 0.282885 -0.062549 0.00941185 0.288007 -0.0773175 -0.00825603 0.293984 0.0626062 0.00322061 0.153022 -0.0262554 -0.00155415 0.148277 0.0131559 -0.00324474 0.153037 0.0263046 0.00395453 0.146398 -0.0343383 0.00815108 0.149003 -0.0687808 -0.00138407 0.139284 0.0131674 -0.00716216 0.137888 0.0688373 -0.00473612 0.143519 0.042516 -0.00261542 0.13505 0.0263277 -8.09574e-06 0.143677 3.39572e-05 0.00367934 0.14084 -0.0343311 -0.00946418 0.143075 0.0850849 0.0026075 0.135036 -0.0262323 0.00713284 0.137887 -0.0687666 0.00944784 0.143085 -0.0850029 -0.00815421 0.149004 0.0688231 0.00318678 -0.00455068 -0.02821 -0.00151682 -0.00925269 0.014132 -0.00316409 -0.00453893 0.0282573 0.00395541 -0.0111025 -0.0368953 0.00808391 -0.00845923 -0.0738963 -0.00138029 -0.0182586 0.0141445 -0.00724835 -0.0195905 0.0739526 -0.00472018 -0.0139658 0.0456762 -0.00265912 -0.0225508 0.0282824 1.45248e-05 -0.0138389 3.39756e-05 0.00373451 -0.0166685 -0.0368875 -0.00945491 -0.0143219 0.0914072 0.0026948 -0.0225624 -0.0281849 0.00726687 -0.019591 -0.0738808 0.00948384 -0.0143136 -0.0913249 -0.00804439 -0.00845843 0.0739371 0.00315424 -0.172124 -0.0297346 -0.00147763 -0.176783 0.0148939 -0.00308149 -0.172116 0.0297803 0.00395723 -0.178603 -0.0388911 0.00801722 -0.175922 -0.0778859 -0.00137448 -0.1858 0.0149071 -0.00733075 -0.187067 0.0779426 -0.00470158 -0.18145 0.048143 -0.00270025 -0.190149 0.0298069 3.87735e-05 -0.181354 3.39912e-05 0.00379034 -0.184176 -0.0388829 -0.00944195 -0.181719 0.0963381 0.00278278 -0.190158 -0.029708 0.00740037 -0.187067 -0.0778695 0.00951941 -0.181713 -0.0962562 -0.00793179 -0.175922 0.0779261 0.00312574 -0.347224 -0.0308423 -0.00143787 -0.351841 0.0154482 -0.00300058 -0.347218 0.0308866 0.00396099 -0.353633 -0.0403431 0.00795581 -0.350917 -0.0807839 -0.00136618 -0.360866 0.015462 -0.00740469 -0.362072 0.0808416 -0.00468074 -0.356464 0.0499376 -0.00273598 -0.365269 0.0309143 6.4238e-05 -0.356397 3.40039e-05 0.003845 -0.359211 -0.0403346 -0.00942573 -0.35665 0.0999199 0.00286791 -0.365275 -0.0308147 0.0075277 -0.362073 -0.0807668 0.00955414 -0.356646 -0.0998391 -0.00782188 -0.350916 0.0808245 0.00310415 -0.527512 -0.031569 -0.00139882 -0.532092 0.0158127 -0.00292508 -0.527508 0.031612 0.00396776 -0.533859 -0.0412982 0.00790471 -0.531112 -0.0826842 -0.00135488 -0.541124 0.0158269 -0.00746528 -0.542276 0.0827435 -0.00465804 -0.536676 0.051118 -0.00276336 -0.545573 0.0316404 9.05356e-05 -0.536635 3.40139e-05 0.00389666 -0.539441 -0.0412894 -0.00940662 -0.536789 0.102268 0.00294652 -0.545576 -0.0315406 0.00764304 -0.542277 -0.0826666 0.00958766 -0.536787 -0.10219 -0.00772035 -0.531112 0.0827259 0.00309258 -0.710925 -0.0319742 -0.00136179 -0.715475 0.0160173 -0.00285887 -0.710923 0.0320159 0.00397879 -0.717222 -0.0418341 0.00786931 -0.714451 -0.0837423 -0.0013399 -0.724512 0.0160317 -0.00750728 -0.725621 0.0838038 -0.00463381 -0.720028 0.0517803 -0.00277918 -0.728998 0.0320447 0.000117333 -0.720007 3.4021e-05 0.00394338 -0.722807 -0.0418252 -0.00938496 -0.720083 0.103576 0.00301484 -0.728999 -0.0319454 0.00774037 -0.725621 -0.0837245 0.00961961 -0.720082 -0.1035 -0.00763308 -0.714451 0.083786 0.003094 -0.895809 -0.0321412 -0.00132785 -0.90034 0.0161039 -0.00280552 -0.895809 0.0321816 0.00399513 -0.902073 -0.0420608 0.00785471 -0.899286 -0.0841761 -0.00132074 -0.90938 0.0161183 -0.00752573 -0.91046 0.0842409 -0.00460832 -0.904871 0.0520605 -0.00278038 -0.913889 0.0322105 0.000144365 -0.904864 3.40252e-05 0.00398361 -0.90766 -0.0420518 -0.00936101 -0.904887 0.104112 0.00306938 -0.913889 -0.0321123 0.00781404 -0.91046 -0.0841583 0.00964973 -0.904887 -0.10404 -0.00756556 -0.899286 0.084223 0.00311213 -1.08106 -0.0321787 -0.00129841 -1.08559 0.0161248 -0.00276927 -1.08106 0.0322182 0.00401857 -1.08731 -0.0421156 0.0078673 -1.08452 -0.0842721 -0.00129631 -1.09463 0.0161393 -0.00751447 -1.0957 0.084339 -0.00458174 -1.09011 0.0521283 -0.00276309 -1.09914 0.0322472 0.000171459 -1.09011 3.40267e-05 0.00401518 -1.0929 -0.0421067 -0.00933494 -1.09011 0.104231 0.00310607 -1.09914 -0.0321497 0.0078573 -1.0957 -0.0842542 0.00967786 -1.09011 -0.104162 -0.00752429 -1.08452 0.0843211 0.00188662 0.536132 0.0137571 -0.000932131 0.546766 -0.00686806 -0.00188025 0.536158 -0.0136821 0.00241756 0.550858 0.018172 0.00494611 0.54414 0.0360898 -0.000887981 0.568883 -0.0069948 -0.00463827 0.571293 -0.0367799 -0.00294991 0.557628 -0.0225425 -0.00173159 0.580116 -0.0141122 -3.49712e-06 0.5577 2.49133e-05 0.00233343 0.56454 0.0183454 -0.00594733 0.557465 -0.0450976 0.0017114 0.580118 0.0141197 0.00463012 0.57128 0.0368322 0.00592666 0.557461 0.0451552 -0.00493808 0.544105 -0.03605 -0.000173944 0.522316 -0.00815589 -0.00109916 0.52819 -0.0427074 -0.000456736 0.546343 -0.016175 1.39352e-05 0.498098 -1.26495e-06 0.000493686 0.513135 0.0214342 0.000454137 0.546352 0.016182 0.00114821 0.528203 0.0427258 -0.0030377 0.651496 0.0118456 0.00154675 0.646709 -0.00584151 0.00317207 0.651523 -0.0117581 -0.00311521 0.714036 0.00962993 0.00161116 0.709426 -0.00473804 0.00329994 0.714049 -0.00953769 -0.00373 0.644869 0.0154763 -0.00380308 0.707577 0.0125555 -0.00775977 0.647547 0.0310709 -0.00796296 0.710037 0.0251358 0.00137457 0.637988 -0.00593219 0.00686548 0.636585 -0.0313238 0.00458129 0.642057 -0.019107 0.00141373 0.700718 -0.00474373 0.00696646 0.699299 -0.0250369 0.00470108 0.704772 -0.0154306 0.00251745 0.633894 -0.0120294 0.00256837 0.696671 -0.00954335 6.5325e-05 0.642207 3.69171e-05 8.771e-05 0.704956 3.7264e-05 -0.00344957 0.639471 0.0155946 -0.00348438 0.702195 0.0125411 0.00912794 0.641658 -0.0384798 0.00930467 0.704241 -0.0309822 -0.00240404 0.633884 0.012063 -0.00240176 0.696653 0.00959428 -0.00672048 0.636572 0.0314093 -0.00677487 0.699301 0.025107 -0.00898384 0.641669 0.0385186 -0.00913147 0.704254 0.0310429 0.00786927 0.647534 -0.0309433 0.00812421 0.71004 -0.0250389 -0.00316887 0.762006 0.00682844 0.00164697 0.757268 -0.00333843 0.00339054 0.762027 -0.00674225 -0.00381142 0.755367 0.00888732 -0.00805428 0.75784 0.0178091 0.00140986 0.748499 -0.00334585 0.00686504 0.746997 -0.0177132 0.00470942 0.752518 -0.0108975 0.00251337 0.744477 -0.00675375 0.000105398 0.752738 3.71149e-05 -0.00342762 0.749948 0.00888067 0.00931426 0.751902 -0.0219144 -0.00231471 0.744457 0.00680702 -0.00663605 0.746995 0.0177885 -0.00910245 0.751916 0.0219752 0.00824699 0.757841 -0.0177129 -0.00321373 0.792472 0.00362979 0.00167873 0.787693 -0.00174628 0.00346273 0.792494 -0.00354699 -0.00383578 0.785763 0.00471547 -0.00815233 0.78821 0.00943989 0.00141641 0.778894 -0.00175193 0.0068367 0.777338 -0.00936128 0.00474388 0.78289 -0.00574354 0.00249079 0.774902 -0.00356007 0.0001184 0.783133 3.72386e-05 -0.00341139 0.780325 0.0047123 0.0093699 0.782203 -0.0115837 -0.0022668 0.77488 0.00362043 -0.00657951 0.777338 0.00943674 -0.00913291 0.782219 0.0116486 0.00836878 0.788212 -0.00935116 -0.0032496 0.803571 0.000148131 0.00170101 0.798746 -1.03211e-05 0.00351508 0.803595 -6.99319e-05 -0.00385603 0.796793 0.000166508 -0.00822552 0.799233 0.000326884 0.00141972 0.789919 -1.32458e-05 0.00681461 0.788322 -0.000246778 0.00476733 0.7939 -0.000121486 0.00247354 0.785939 -7.52185e-05 0.00012622 0.794161 3.72655e-05 -0.00340091 0.791338 0.000164916 0.0094083 0.793165 -0.000318057 -0.00223501 0.785915 0.000142265 -0.00654035 0.788321 0.000322734 -0.00915543 0.793182 0.000386431 0.00845634 0.799234 -0.000243772 -0.00327459 0.793921 -0.00351908 0.00171332 0.789068 0.00181766 0.00354594 0.793946 0.00359303 -0.0038735 0.787099 -0.00462363 -0.00827768 0.789537 -0.00927147 0.00142178 0.780212 0.00181766 0.00681125 0.778592 0.00934822 0.0047847 0.784191 0.00579865 0.00246631 0.776235 0.00359289 0.000128912 0.784462 3.73168e-05 -0.00340179 0.781626 -0.00462377 0.00944065 0.783429 0.0115436 -0.00222283 0.77621 -0.00351921 -0.00653082 0.778591 -0.00927149 -0.00918246 0.783447 -0.0114716 0.00851304 0.789538 0.00934828 -0.0032896 0.762769 -0.00726578 0.00171627 0.757899 0.00368567 0.00355614 0.762794 0.0073354 -0.00388901 0.755923 -0.00951833 -0.00830916 0.758367 -0.0190778 0.00142248 0.749017 0.00368831 0.00682466 0.747389 0.0191519 0.0047961 0.753006 0.0118478 0.00246828 0.74503 0.00734072 0.000126442 0.753279 3.73574e-05 -0.00341366 0.750434 -0.00951665 0.00946582 0.752238 0.0236629 -0.00222985 0.745005 -0.00726043 -0.006549 0.747388 -0.0190745 -0.00921256 0.752256 -0.0235874 0.00853942 0.758368 0.0191486 -0.00329494 0.709956 -0.0109901 0.00170993 0.705083 0.00554269 0.0035462 0.709981 0.0110556 -0.00390235 0.703107 -0.0143842 -0.00832063 0.705564 -0.0288257 0.00142172 0.696176 0.00554799 0.00685418 0.694556 0.0288973 0.00480138 0.700186 0.0178615 0.00247904 0.692168 0.0110662 0.000118936 0.700453 3.73969e-05 -0.00343602 0.697603 -0.014381 0.00948391 0.699432 0.0357101 -0.00225533 0.692143 -0.0109795 -0.00659397 0.694555 -0.0288191 -0.00924568 0.69945 -0.0356313 0.00853631 0.705566 0.0288907 -0.0032914 0.635901 -0.0145959 0.00169483 0.631035 0.00734076 0.00351739 0.635925 0.0146572 -0.00391386 0.629068 -0.0190955 -0.00831359 0.631544 -0.038263 0.00141943 0.622106 0.00734856 0.00689837 0.620509 0.0383323 0.00480083 0.626147 0.0236841 0.00249777 0.618067 0.0146729 0.000106597 0.626402 3.74328e-05 -0.00346827 0.623549 -0.0190907 0.00949513 0.625427 0.0473734 -0.0022981 0.618043 -0.0145802 -0.00666384 0.620508 -0.0382533 -0.0092816 0.625444 -0.0472916 0.00850558 0.631546 0.0383226 -0.00328007 0.541556 -0.017995 0.00167164 0.536707 0.00903603 0.00347142 0.541578 0.0180526 -0.00392383 0.534755 -0.0235374 -0.00829002 0.537258 -0.0471596 0.00141554 0.527758 0.00904614 0.0069553 0.526197 0.0472269 0.00479472 0.531839 0.0291738 0.00252334 0.523679 0.0180729 8.97248e-05 0.532077 3.74657e-05 -0.00350947 0.529224 -0.0235312 0.00949979 0.531169 0.0583685 -0.00235645 0.523657 -0.0179748 -0.00675601 0.526196 -0.0471471 -0.00932003 0.531185 -0.0582841 0.00844976 0.537259 0.0472143 -0.00326235 0.428351 -0.0211109 0.00164123 0.42353 0.0105902 0.00341049 0.428371 0.021165 -0.00393269 0.421597 -0.0276097 -0.00825248 0.424131 -0.0553146 0.00140994 0.414562 0.0106024 0.00702247 0.413048 0.0553802 0.00478344 0.41869 0.0342066 0.00255431 0.410435 0.0211895 6.86994e-05 0.418905 3.74954e-05 -0.00355845 0.416055 -0.0276021 0.00949825 0.418086 0.0684471 -0.00242825 0.410416 -0.0210864 -0.00686717 0.413047 -0.0552995 -0.00936058 0.4181 -0.0683605 0.00837209 0.424133 0.0553651 -0.00323989 0.298125 -0.0238805 0.00160465 0.293338 0.011972 0.00333722 0.298143 0.0239315 -0.00394093 0.29143 -0.03123 -0.00820404 0.293999 -0.0625632 0.00140247 0.284353 0.011986 0.00709691 0.282894 0.0626276 0.00476744 0.288535 0.038681 0.00258895 0.280173 0.0239596 4.39685e-05 0.288722 3.7522e-05 -0.0036138 0.285877 -0.0312214 0.00949096 0.288006 0.0774055 -0.00251091 0.280156 -0.0238524 -0.00699334 0.282894 -0.0625458 -0.00940279 0.288019 -0.0773173 0.00827644 0.294 0.0626102 -0.00321465 0.153034 -0.0262571 0.00156305 0.148286 0.013158 0.00325461 0.153048 0.0263052 -0.00394914 0.146405 -0.0343374 -0.00814825 0.149012 -0.0687828 0.00139297 0.139287 0.0131736 0.00717516 0.137889 0.0688465 0.00474721 0.143525 0.0425214 0.00262526 0.13505 0.0263365 1.60327e-05 0.143683 3.75455e-05 -0.00367394 0.140844 -0.0343278 0.00947843 0.143081 0.0850922 -0.00260152 0.135035 -0.0262258 -0.00712996 0.137889 -0.0687635 -0.00944616 0.143091 -0.085003 0.00816725 0.149013 0.0688271 -0.0031888 -0.00454597 -0.028212 0.00151774 -0.00925097 0.014134 0.00316598 -0.00453419 0.0282578 -0.00395801 -0.011102 -0.0368947 -0.00808907 -0.00845683 -0.0738987 0.00138121 -0.0182629 0.0141509 0.00725337 -0.0195955 0.0739621 0.00472328 -0.013967 0.0456818 0.00266099 -0.0225581 0.0282916 -1.45743e-05 -0.0138402 3.75659e-05 -0.0037371 -0.0166716 -0.0368842 0.00946117 -0.0143232 0.0914148 -0.0026968 -0.0225696 -0.0281782 -0.00727199 -0.019596 -0.0738777 -0.00949016 -0.0143149 -0.0913253 0.00804945 -0.008456 0.0739412 -0.00316475 -0.172127 -0.0297369 0.00147007 -0.176789 0.0148958 0.0030749 -0.172118 0.0297806 -0.00396832 -0.17861 -0.0388907 -0.00803086 -0.175927 -0.0778886 0.00136692 -0.185811 0.0149137 0.0073273 -0.187079 0.0779525 0.0046962 -0.181459 0.0481487 0.00269364 -0.190164 0.0298164 -4.73064e-05 -0.181363 3.75831e-05 -0.00380142 -0.184186 -0.0388796 0.00943973 -0.181728 0.0963459 -0.00279327 -0.190172 -0.0297011 -0.00741398 -0.18708 -0.0778664 -0.00953423 -0.181721 -0.0962568 0.00792837 -0.175927 0.0779303 -0.00314509 -0.347234 -0.0308449 0.00142146 -0.351854 0.01545 0.00298513 -0.347228 0.0308868 -0.00398094 -0.353647 -0.0403428 -0.00797831 -0.350929 -0.0807869 0.00134976 -0.360886 0.0154687 0.0073924 -0.362092 0.0808517 0.0046665 -0.35648 0.0499434 0.00272053 -0.365291 0.030924 -8.1629e-05 -0.356414 3.75972e-05 -0.00386494 -0.359229 -0.0403313 0.00941465 -0.356667 0.0999279 -0.00288725 -0.365297 -0.0308076 -0.00755018 -0.362093 -0.0807638 -0.00957783 -0.356662 -0.0998399 0.0078096 -0.350929 0.0808287 -0.00313262 -0.52753 -0.0315717 0.00137329 -0.532113 0.0158146 0.00290052 -0.527526 0.0316121 -0.00399682 -0.533881 -0.0412979 -0.00793633 -0.531133 -0.0826872 0.00132934 -0.541152 0.0158337 0.00744388 -0.542304 0.08275