<VTKFile type="UnstructuredGrid" version="1.0" byte_order="LittleEndian" header_type="UInt64">
  <UnstructuredGrid>
    <Piece NumberOfPoints="791" NumberOfCells="973">
      <PointData>
        <DataArray type="Float32" Name="displacement" NumberOfComponents="3" format="ascii" RangeMin="0" RangeMax="1.09967656">
          -7.7241500549e-05 0.44758298993 0.01515099965 0.00017151900101 0.47328200936 -0.0083888396621
          -0.00043071500841 0.48289701343 0.021836899221 1.6212799892e-05 0.44203698635 0.018896300346
          0.00010795999697 0.44757899642 0.015148799866 0.00046317200758 0.4828889966 0.021837700158
          -0.00013709400082 0.4732849896 -0.0083992499858 9.8928896477e-05 0.44751900434 -0.015152099542
          0.00087283598259 0.4674000144 -0.047978401184 0.00020049299928 0.45185899734 -0.03971010074
          1.6888299797e-05 0.44199898839 -0.018912600353 -0.00083871500101 0.46740400791 -0.04796839878
          -6.3758896431e-05 0.44751900434 -0.015158600174 -0.00016392799444 0.45185700059 -0.039708700031
          -0.00087324902415 0.46731001139 0.048023600131 -0.00021878599364 0.45185300708 0.039697501808
          0.00089951697737 0.46730101109 0.048028599471 0.00024849298643 0.45184600353 0.039693400264
          0.0006301170215 0.49813199043 -0.026745900512 1.9913099095e-05 0.46566700935 -0.048885401338
          -0.00059128302382 0.49813199043 -0.02673830092 0.0013032599818 0.49809700251 -0.053594499826
          -0.0012636199826 0.49811500311 -0.05358029902 0.0012647899566 0.49812099338 0.05353949964
          1.4833800378e-05 0.46565198898 0.048907201737 -0.0012365099974 0.49815499783 0.05352659896
          1.6693400539e-05 0.43858599663 1.9364699256e-05 0.0031517599709 0.71400201321 0.0096246302128
          -0.0015717799542 0.7093949914 -0.0047418801114 -0.003259609919 0.71401500702 -0.0095419101417
          0.0030715600587 0.65146499872 0.011839999817 -0.0015098700533 0.646682024 -0.0058458298445
          -0.0031343400478 0.65149301291 -0.011762900278 0.0038390399422 0.70754802227 0.012550800107
          0.0037634898908 0.64484202862 0.015471899882 0.0079965600744 0.71000498533 0.025130100548
          0.0077902800404 0.64751899242 0.031065199524 -0.0013743699528 0.70069301128 -0.0047464300878
          -0.0069231600501 0.69927400351 -0.025038300082 -0.0046596000902 0.70474398136 -0.015433399938
          -0.0013376900461 0.63796597719 -0.0059345699847 -0.006824629847 0.63656401634 -0.031324900687
          -0.0045423298143 0.64203298092 -0.019108999521 -0.00252809003 0.69664901495 -0.0095451902598
          -0.0024796600919 0.6338750124 -0.012030700222 -4.9299098464e-05 0.7049279809 3.367429963e-05
          -2.9257300412e-05 0.64218199253 3.3523301681e-05 0.0035202798899 0.7021690011 0.012537299655
          0.003483310109 0.63944798708 0.015590799972 -0.0092600397766 0.70421302319 -0.030984099954
          -0.0090863695368 0.64163398743 -0.038481101394 0.0024382900447 0.69663000107 0.0095913903788
          0.00243813009 0.63386499882 0.01206049975 0.0068084201775 0.69927597046 0.025102900341
          0.0067513198592 0.63655000925 0.031404901296 0.0091639198363 0.704226017 0.031037699431
          0.0090131498873 0.64164197445 0.038513299078 -0.0080806696787 0.71000897884 -0.025041900575
          -0.0078289397061 0.64750599861 -0.030945599079 0.0032073201146 0.7619689703 0.0068236901425
          -0.0016056200257 0.75723397732 -0.0033422200941 -0.0033482599538 0.76199102402 -0.0067462502047
          0.003849349916 0.75533401966 0.0088830497116 0.0080896802247 0.75780600309 0.017804000527
          -0.0013685199665 0.74847102165 -0.003348799888 -0.0068196998909 0.74696999788 -0.017715299502
          -0.0046659400687 0.7524870038 -0.01090050023 -0.0024711301085 0.74445199966 -0.0067560900934
          -6.4988598751e-05 0.75270801783 3.3568001527e-05 0.0034655800555 0.74991899729 0.0088769001886
          -0.0092677203938 0.7518709898 -0.021916700527 0.0023532100022 0.7444319725 0.0068039298058
          0.006671550218 0.74696797132 0.017784500495 0.0091367503628 0.75188499689 0.021970400587
          -0.0082016196102 0.75780701637 -0.017715999857 0.0032533400226 0.79243397713 0.0036256399471
          -0.0016362200258 0.78765702248 -0.0017499099486 -0.0034192900639 0.79245597124 -0.0035507099237
          0.003874839982 0.78572797775 0.0047115101479 0.0081888996065 0.78817397356 0.0094355400652
          -0.0013739099959 0.77886497974 -0.0017551899655 -0.0067902100272 0.77731001377 -0.0093640303239
          -0.0046992502175 0.78285700083 -0.0057467399165 -0.0024473899975 0.7748759985 -0.0035630399361
          -7.684170123e-05 0.78310102224 3.3681801142e-05 0.0034504700452 0.7802940011 0.0047085699625
          -0.0093221599236 0.78216999769 -0.011586599983 0.0023064499255 0.7748529911 0.003617020091
          0.006616150029 0.77730900049 0.009432840161 0.0091683603823 0.78218597174 0.011644399725
          -0.0083221998066 0.78817600012 -0.0093543697149 0.0032894299366 0.80353200436 0.00014464800188
          -0.0016582499957 0.79870998859 -1.3788900105e-05 -0.0034713800997 0.80355602503 -7.3304501711e-05
          0.0038953400217 0.79675799608 0.00016291700013 0.0082622999325 0.79919600487 0.00032325999928
          -0.0013769799843 0.789888978 -1.6849500753e-05 -0.0067678499036 0.78829300404 -0.00025027900119
          -0.0047224299051 0.793866992 -0.00012495899864 -0.0024298899807 0.78591197729 -7.8859702626e-05
          -8.4414998128e-05 0.79412800074 3.370270133e-05 0.0034402399324 0.79130601883 0.00016124200192
          -0.0093602901325 0.79313099384 -0.0003214419994 0.0022748899646 0.78588801622 0.00013851400581
          0.0065772100352 0.78829199076 0.0003189459967 0.0091911097988 0.79314899445 0.0003826910106
          -0.0084095001221 0.79919701815 -0.00024710700382 0.0033136799466 0.79388201237 -0.0035218500998
          -0.0016713100486 0.78903198242 0.0018143700436 -0.0035029898863 0.79390698671 0.0035900198855
          0.0039120498113 0.78706401587 -0.0046268398874 0.00831370987 0.78949999809 -0.0092743104324
          -0.0013797800057 0.78018200397 0.001813699957 -0.0067652198486 0.77856200933 0.0093439295888
          -0.0047405399382 0.78415799141 0.0057948902249 -0.0024234000593 0.77620697021 0.0035885300022
          -8.7849497504e-05 0.78442901373 3.3750700823e-05 0.003440360073 0.78159499168 -0.0046273898333
          -0.009393369779 0.78339600563 0.011539700441 0.0022619699594 0.77618199587 -0.0035233399831
          0.0065669300966 0.77856099606 -0.0092751700431 0.0092173703015 0.78341400623 -0.011474800296
          -0.0084669301286 0.78950202465 0.0093448301777 0.0033269100823 0.76273101568 -0.0072678299621
          -0.0016760400031 0.75786399841 0.0036825700663 -0.0035149499308 0.76275599003 0.0073327701539
          0.0039257798344 0.75589001179 -0.0095211397856 0.0083433901891 0.7583310008 -0.019079800695
          -0.0013822600013 0.74898797274 0.003683970077 -0.006780390162 0.74736100435 0.019146800041
          -0.0047536999919 0.75297397375 0.011843799613 -0.0024271500297 0.74500399828 0.007335620001
          -8.7157299276e-05 0.75324702263 3.3786898712e-05 0.0034504500218 0.75040400028 -0.0095202298835
          -0.009420289658 0.75220602751 0.023658400401 0.0022672000341 0.74497902393 -0.007264949847
          0.0065833199769 0.74735999107 -0.019077999517 0.0092456797138 0.75222402811 -0.023590100929
          -0.0084950700402 0.75833302736 0.019145000726 0.0033294099849 0.70991998911 -0.010991499759
          -0.001672519953 0.70504999161 0.005539780017 -0.0035078399815 0.70994502306 0.011053300463
          0.0039362800308 0.70307600498 -0.014386599883 0.0083520300686 0.70553100109 -0.028826899827
          -0.0013843199704 0.69614899158 0.0055432901718 -0.0068127200939 0.69453001022 0.028891399503
          -0.0047618099488 0.70015597343 0.017857199535 -0.0024407301098 0.69214397669 0.011060300283
          -8.2480699348e-05 0.70042401552 3.3822798287e-05 0.003469980089 0.69757497311 -0.014384499751
          -0.0094411997125 0.69940298796 0.035705000162 0.002289850032 0.69211900234 -0.010984400287
          0.0066254399717 0.69452899694 -0.028822600842 0.0092759598047 0.69941997528 -0.035633400083
          -0.0084947803989 0.70553201437 0.028886999935 0.0033219999168 0.63586801291 -0.014596500434
          -0.0016612800537 0.63100498915 0.0073380400427 -0.0034828900825 0.63589197397 0.014655400068
          0.0039439201355 0.62903898954 -0.019097600132 0.0083411000669 0.63151401281 -0.038263499737
          -0.0013858999591 0.62208199501 0.0073434999213 -0.0068607698195 0.62048602104 0.038325600326
          -0.0047651100904 0.62611997128 0.023679500446 -0.0024633200374 0.6180459857 0.014666300267
          -7.4008603406e-05 0.62637597322 3.3855201764e-05 0.0034983500373 0.62352401018 -0.019094200805
          -0.0094562703744 0.62540000677 0.047367800027 0.0023287399672 0.61802297831 -0.014585499652
          0.0066914302297 0.62048500776 -0.038256701082 0.0093079898506 0.62541699409 -0.047293201089
          -0.00846790988 0.63151597977 0.038318801671 0.003305810038 0.54152697325 -0.017994999886
          -0.0016429499956 0.5366820097 0.0090334797278 -0.0034417801071 0.54154902697 0.018051100895
          0.0039490200579 0.53473001719 -0.023539099842 0.0083126695827 0.53723102808 -0.047159399837
          -0.001386870048 0.52773797512 0.0090407496318 -0.0069225397892 0.52617800236 0.047219499946
          -0.0047638597898 0.53181600571 0.029168900102 -0.0024937400594 0.52366197109 0.018065700307
          -6.1999002355e-05 0.53205400705 3.3885000448e-05 0.0035346799996 0.52920299768 -0.023534599692
          -0.0094657801092 0.53114700317 0.058362398297 0.0023822300136 0.52363997698 -0.017980400473
          0.0067787300795 0.52617698908 -0.047150399536 0.0093415500596 0.53116297722 -0.058285199106
          -0.0084169404581 0.53723299503 0.047210499644 0.003282289952 0.42832800746 -0.021110199392
          -0.0016183400294 0.42350900173 0.010587800294 -0.0033866399899 0.42834800482 0.021163800731
          0.0039520799182 0.42157799006 -0.027611000463 0.0082693295553 0.42410999537 -0.055313698947
          -0.0013870500261 0.41454699636 0.010596700013 -0.0069955000654 0.41303399205 0.055372200906
          -0.0047583701089 0.41867300868 0.034201499075 -0.0025304900482 0.41042399406 0.021181600168
          -4.6764198487e-05 0.41888698936 3.3911899664e-05 0.0035778600723 0.41603899002 -0.027605500072
          -0.0094700204208 0.41806799173 0.06844060123 0.0024482300505 0.41040399671 -0.021092399955
          0.0068840798922 0.41303300858 -0.055302698165 0.0093762800097 0.41808199883 -0.068361103535
          -0.0083450498059 0.42411100864 0.055361200124 0.0032532101031 0.29810699821 -0.023879300803
          -0.0015883799642 0.29332301021 0.011969700456 -0.0033199898899 0.29812499881 0.023930599913
          0.003953690175 0.2914159894 -0.03123109974 0.0082142502069 0.29398301244 -0.062561698258
          -0.0013862099731 0.2843439877 0.011980099604 -0.0070765498094 0.28288599849 0.062619000673
          -0.0047489898279 0.28852298856 0.038675699383 -0.0025717599783 0.28016701341 0.023951299489
          -2.8664600904e-05 0.28870999813 3.393589941e-05 0.0036265798844 0.28586700559 -0.031224699691
          -0.0094693601131 0.28799501061 0.077398501337 0.0025242699776 0.28014999628 -0.023858599365
          0.0070035997778 0.28288498521 -0.062549002469 0.0094118500128 0.28800699115 -0.077317498624
          -0.008256030269 0.29398399591 0.062606200576 0.0032206100877 0.15302200615 -0.026255400851
          -0.0015541500179 0.14827699959 0.013155899942 -0.0032447399572 0.15303699672 0.02630460076
          0.0039545302279 0.14639799297 -0.034338299185 0.0081510804594 0.14900299907 -0.06878080219
          -0.0013840700267 0.1392839998 0.013167399913 -0.0071621597745 0.13788799942 0.068837299943
          -0.0047361198813 0.14351899922 0.042516000569 -0.0026154199149 0.13504999876 0.026327699423
          -8.0957397586e-06 0.14367699623 3.3957199776e-05 0.0036793400068 0.14083999395 -0.034331098199
          -0.009464180097 0.14307500422 0.08508490026 0.0026074999478 0.13503600657 -0.026232300326
          0.0071328398772 0.13788700104 -0.068766601384 0.0094478400424 0.1430850029 -0.08500289917
          -0.0081542097032 0.14900399745 0.068823099136 0.003186780028 -0.0045506800525 -0.028209999204
          -0.001516820048 -0.0092526897788 0.014131999575 -0.0031640899833 -0.0045389300212 0.028257299215
          0.0039554098621 -0.011102500372 -0.036895301193 0.00808390975 -0.0084592299536 -0.073896296322
          -0.0013802900212 -0.018258599564 0.014144499786 -0.0072483499534 -0.019590500742 0.07395260036
          -0.0047201798297 -0.013965800405 0.045676201582 -0.0026591198985 -0.022550800815 0.028282400221
          1.4524799553e-05 -0.013838900253 3.3975600672e-05 0.0037345099263 -0.016668500379 -0.036887500435
          -0.0094549097121 -0.014321899973 0.091407202184 0.0026948000304 -0.022562399507 -0.02818490006
          0.0072668697685 -0.019590999931 -0.073880799115 0.0094838403165 -0.014313600026 -0.091324903071
          -0.0080443900079 -0.0084584299475 0.073937103152 0.0031542400829 -0.1721239984 -0.029734600335
          -0.001477629994 -0.17678299546 0.014893899672 -0.0030814900529 -0.17211599648 0.029780300334
          0.0039572301321 -0.17860299349 -0.038891099393 0.0080172196031 -0.17592200637 -0.077885903418
          -0.0013744799653 -0.18580000103 0.014907100238 -0.0073307501152 -0.18706700206 0.077942602336
          -0.0047015799209 -0.18144999444 0.048142999411 -0.0027002498973 -0.19014899433 0.029806900769
          3.8773501728e-05 -0.18135400116 3.3991200326e-05 0.0037903399207 -0.18417599797 -0.038882900029
          -0.0094419503585 -0.18171900511 0.096338100731 0.0027827799786 -0.19015799463 -0.0297079999
          0.007400370203 -0.18706700206 -0.07786949724 0.0095194103196 -0.18171299994 -0.096256196499
          -0.0079317903146 -0.17592200637 0.0779260993 0.0031257399824 -0.34722399712 -0.030842300504
          -0.0014378699707 -0.3518410027 0.015448199585 -0.0030005800072 -0.34721800685 0.030886599794
          0.0039609898813 -0.35363298655 -0.040343098342 0.0079558100551 -0.3509170115 -0.080783903599
          -0.0013661800185 -0.36086601019 0.015461999923 -0.0074046901427 -0.36207199097 0.080841600895
          -0.0046807401814 -0.35646399856 0.049937598407 -0.0027359800879 -0.3652690053 0.03091429919
          6.4237996412e-05 -0.35639700294 3.400390051e-05 0.0038449999411 -0.35921099782 -0.040334600955
          -0.0094257304445 -0.35664999485 0.099919900298 0.0028679100797 -0.36527499557 -0.030814699829
          0.0075277001597 -0.36207300425 -0.080766797066 0.0095541402698 -0.35664600134 -0.099839098752
          -0.007821880281 -0.35091599822 0.080824501812 0.0031041500624 -0.52751201391 -0.031569000334
          -0.0013988199644 -0.53209197521 0.015812700614 -0.0029250800144 -0.5275080204 0.031612001359
          0.0039677601308 -0.53385901451 -0.041298199445 0.0079047102481 -0.53111201525 -0.082684196532
          -0.0013548800489 -0.54112398624 0.015826899558 -0.0074652801268 -0.54227602482 0.082743503153
          -0.0046580401249 -0.53667598963 0.051118001342 -0.0027633600403 -0.54557299614 0.031640399247
          9.0535599156e-05 -0.53663498163 3.4013901313e-05 0.0038966599386 -0.53944098949 -0.041289400309
          -0.0094066197053 -0.53678900003 0.10226800293 0.0029465199914 -0.54557597637 -0.03154059872
          0.007643039804 -0.54227697849 -0.08266659826 0.0095876604319 -0.53678697348 -0.1021900028
          -0.0077203498222 -0.53111201525 0.082725897431 0.0030925800093 -0.71092498302 -0.031974200159
          -0.0013617899967 -0.71547502279 0.016017299145 -0.0028588699643 -0.71092301607 0.032015901059
          0.003978789784 -0.71722197533 -0.041834101081 0.0078693097457 -0.714451015 -0.083742298186
          -0.0013398999581 -0.72451198101 0.016031699255 -0.0075072799809 -0.72562098503 0.083803802729
          -0.0046338099055 -0.72002798319 0.051780298352 -0.0027791799512 -0.72899800539 0.032044701278
          0.00011733300198 -0.72000700235 3.402099901e-05 0.0039433799684 -0.72280699015 -0.041825201362
          -0.0093849599361 -0.72008299828 0.10357599705 0.0030148399528 -0.72899901867 -0.03194539994
          0.0077403699979 -0.72562098503 -0.083724498749 0.0096196103841 -0.720081985 -0.10350000113
          -0.0076330797747 -0.714451015 0.083786003292 0.0030940000433 -0.89580899477 -0.032141201198
          -0.001327850041 -0.90034002066 0.016103899106 -0.0028055200819 -0.89580899477 0.032181598246
          0.0039951298386 -0.9020730257 -0.042060799897 0.007854710333 -0.89928597212 -0.084176100791
          -0.0013207399752 -0.90938001871 0.016118299216 -0.0075257299468 -0.91045999527 0.08424089849
          -0.0046083200723 -0.90487098694 0.052060499787 -0.0027803799603 -0.91388899088 0.032210499048
          0.00014436499623 -0.9048640132 3.4025200875e-05 0.003983609844 -0.90766000748 -0.042051799595
          -0.0093610100448 -0.90488702059 0.10411199927 0.0030693800654 -0.91388899088 -0.032112300396
          0.0078140404075 -0.91045999527 -0.084158301353 0.0096497302875 -0.90488702059 -0.10403999686
          -0.0075655598193 -0.89928597212 0.084223002195 0.0031121300999 -1.0810600519 -0.03217869997
          -0.0012984100031 -1.0855900049 0.016124799848 -0.0027692699805 -1.0810600519 0.032218199223
          0.0040185698308 -1.0873099566 -0.042115598917 0.0078672999516 -1.0845199823 -0.084272101521
          -0.0012963099871 -1.094630003 0.01613930054 -0.0075144697912 -1.0957000256 0.084339000285
          -0.004581740126 -1.0901099443 0.052128300071 -0.0027630899567 -1.099140048 0.032247200608
          0.00017145900347 -1.0901099443 3.4026699723e-05 0.0040151798166 -1.0929000378 -0.042106699198
          -0.0093349404633 -1.0901099443 0.10423099995 0.0031060699839 -1.099140048 -0.032149698585
          0.0078573003411 -1.0957000256 -0.084254197776 0.0096778599545 -1.0901099443 -0.10416200012
          -0.0075242901221 -1.0845199823 0.084321096539 0.0018866199534 0.53613197803 0.013757100329
          -0.00093213102082 0.5467659831 -0.0068680602126 -0.0018802500563 0.53615802526 -0.013682099991
          0.0024175599683 0.55085802078 0.018171999604 0.0049461098388 0.54413998127 0.036089800298
          -0.00088798097568 0.5688830018 -0.0069948001765 -0.0046382700093 0.57129299641 -0.03677989915
          -0.0029499100056 0.55762797594 -0.022542500868 -0.0017315900186 0.58011597395 -0.014112199657
          -3.4971199057e-06 0.55769997835 2.4913300877e-05 0.0023334301077 0.56454002857 0.018345400691
          -0.0059473300353 0.55746501684 -0.045097600669 0.0017113999929 0.58011800051 0.014119699597
          0.0046301200055 0.57128000259 0.036832198501 0.0059266597964 0.55746102333 0.045155201107
          -0.0049380799755 0.54410499334 -0.036049999297 -0.00017394400493 0.522315979 -0.0081558898091
          -0.0010991600575 0.52819001675 -0.042707398534 -0.00045673598652 0.54634302855 -0.016174999997
          1.3935199604e-05 0.49809798598 -1.264950015e-06 0.00049368600594 0.51313501596 0.021434200928
          0.00045413701446 0.54635202885 0.016181999817 0.0011482100235 0.52820301056 0.042725801468
          -0.0030376999639 0.65149599314 0.01184559986 0.0015467499616 0.64670902491 -0.0058415099047
          0.0031720700208 0.65152299404 -0.011758100241 -0.0031152099837 0.71403598785 0.0096299303696
          0.001611159998 0.70942598581 -0.0047380398028 0.0032999399118 0.71404898167 -0.0095376903191
          -0.0037299999967 0.64486902952 0.015476300381 -0.0038030799478 0.70757699013 0.012555499561
          -0.0077597699128 0.64754700661 0.031070899218 -0.0079629598185 0.71003699303 0.025135800242
          0.0013745699544 0.63798797131 -0.0059321899898 0.0068654799834 0.63658499718 -0.031323801726
          0.0045812898315 0.64205700159 -0.019107000902 0.0014137299731 0.70071798563 -0.0047437301837
          0.0069664600305 0.69929897785 -0.025036899373 0.0047010798007 0.70477199554 -0.015430600382
          0.0025174499024 0.63389402628 -0.012029400095 0.0025683699641 0.69667100906 -0.0095433499664
          6.5325002652e-05 0.64220702648 3.6917099351e-05 8.7710002845e-05 0.70495599508 3.726399882e-05
          -0.0034495699219 0.63947099447 0.015594599769 -0.0034843799658 0.70219498873 0.012541100383
          0.0091279400513 0.6416580081 -0.038479801267 0.0093046696857 0.70424097776 -0.030982200056
          -0.0024040399585 0.6338840127 0.012063000351 -0.0024017600808 0.69665300846 0.0095942802727
          -0.0067204800434 0.63657200336 0.031409300864 -0.0067748702131 0.69930100441 0.025107000023
          -0.0089838402346 0.64166897535 0.038518600166 -0.0091314697638 0.70425397158 0.031042899936
          0.0078692696989 0.64753401279 -0.030943300575 0.0081242099404 0.71003997326 -0.025038899854
          -0.0031688699964 0.76200598478 0.0068284398876 0.0016469700495 0.75726801157 -0.0033384300768
          0.0033905399032 0.76202702522 -0.0067422501743 -0.0038114199415 0.75536698103 0.0088873198256
          -0.0080542797223 0.75783997774 0.017809100449 0.0014098599786 0.74849897623 -0.0033458499238
          0.0068650399335 0.74699699879 -0.017713200301 0.0047094197944 0.75251799822 -0.01089750044
          0.002513370011 0.74447697401 -0.0067537501454 0.00010539800132 0.75273799896 3.7114899897e-05
          -0.0034276200458 0.74994802475 0.0088806701824 0.0093142604455 0.75190198421 -0.02191440016
          -0.0023147100583 0.74445700645 0.0068070199341 -0.0066360500641 0.74699497223 0.017788499594
          -0.0091024497524 0.75191599131 0.021975200623 0.0082469899207 0.75784099102 -0.017712900415
          -0.0032137299422 0.79247200489 0.0036297899205 0.0016787300119 0.78769302368 -0.0017462800024
          0.0034627299756 0.792493999 -0.0035469899885 -0.0038357800804 0.78576302528 0.0047154701315
          -0.0081523302943 0.78820997477 0.0094398902729 0.0014164099703 0.77889400721 -0.0017519299872
          0.0068366997875 0.77733802795 -0.0093612801284 0.0047438801266 0.7828900218 -0.0057435398921
          0.0024907900952 0.77490198612 -0.0035600699484 0.00011839999934 0.78313297033 3.7238598452e-05
          -0.0034113898873 0.78032499552 0.0047122999094 0.0093699004501 0.78220301867 -0.011583699845
          -0.0022668000311 0.77487999201 0.0036204298958 -0.0065795099363 0.77733802795 0.0094367396086
          -0.0091329095885 0.78221899271 0.01164859999 0.0083687799051 0.78821200132 -0.0093511603773
          -0.003249600064 0.80357098579 0.00014813100279 0.0017010100419 0.7987459898 -1.032109958e-05
          0.0035150800832 0.80359500647 -6.9931898906e-05 -0.00385603006 0.79679298401 0.00016650800535
          -0.0082255201414 0.79923301935 0.00032688400825 0.0014197200071 0.78991901875 -1.3245799892e-05
          0.006814610213 0.78832197189 -0.00024677801412 0.0047673298977 0.79390001297 -0.00012148600217
          0.0024735399056 0.7859389782 -7.5218500569e-05 0.00012621999485 0.79416102171 3.7265501305e-05
          -0.0034009099472 0.79133802652 0.00016491599672 0.0094082998112 0.7931650281 -0.00031805699109
          -0.0022350100335 0.78591501713 0.00014226499479 -0.0065403501503 0.78832101822 0.00032273400575
          -0.0091554298997 0.79318201542 0.00038643099833 0.0084563400596 0.79923397303 -0.00024377199588
          -0.0032745900098 0.7939209938 -0.0035190801136 0.0017133200308 0.78906798363 0.001817660057
          0.0035459399223 0.79394602776 0.00359302992 -0.0038735000417 0.78709900379 -0.0046236300841
          -0.0082776797935 0.78953701258 -0.0092714698985 0.0014217799762 0.78021198511 0.001817660057
          0.0068112500012 0.77859199047 0.0093482201919 0.0047846999951 0.78419101238 0.0057986499742
          0.0024663100485 0.7762349844 0.0035928899888 0.00012891199731 0.7844619751 3.7316800444e-05
          -0.0034017900471 0.7816259861 -0.0046237697825 0.0094406502321 0.7834290266 0.011543599889
          -0.002222829964 0.77621001005 -0.0035192100331 -0.0065308199264 0.77859097719 -0.0092714903876
          -0.0091824596748 0.78344702721 -0.011471600272 0.0085130399093 0.78953802586 0.0093482797965
          -0.0032895999029 0.76276898384 -0.0072657801211 0.0017162699951 0.75789898634 0.0036856699735
          0.00355614 0.76279401779 0.0073354002088 -0.003889010055 0.75592297316 -0.0095183299854
          -0.0083091603592 0.75836700201 -0.019077800214 0.0014224799816 0.7490170002 0.0036883100402
          0.0068246601149 0.74738901854 0.019151899964 0.004796099849 0.75300598145 0.011847799644
          0.0024682800286 0.7450299859 0.0073407199234 0.00012644199887 0.75327897072 3.7357400288e-05
          -0.0034136599861 0.75043398142 -0.0095166498795 0.009465820156 0.7522379756 0.023662900552
          -0.0022298500407 0.74500501156 -0.0072604301386 -0.0065489998087 0.74738800526 -0.019074499607
          -0.0092125600204 0.7522559762 -0.023587400094 0.0085394196212 0.75836801529 0.019148599356
          -0.0032949401066 0.70995599031 -0.010990099981 0.0017099300167 0.70508301258 0.0055426899344
          0.0035461999942 0.70998102427 0.011055599898 -0.0039023500867 0.7031069994 -0.014384199865
          -0.0083206295967 0.70556402206 -0.028825700283 0.0014217200223 0.69617599249 0.0055479900911
          0.0068541797809 0.69455599785 0.028897300363 0.0048013799824 0.70018601418 0.017861500382
          0.0024790400639 0.69216799736 0.011066200212 0.00011893599731 0.70045298338 3.7396901462e-05
          -0.0034360201098 0.69760298729 -0.014380999841 0.0094839101657 0.69943201542 0.035710100085
          -0.0022553300951 0.69214302301 -0.010979499668 -0.0065939701162 0.69455498457 -0.028819100931
          -0.0092456797138 0.69945001602 -0.035631299019 0.0085363099352 0.70556598902 0.028890699148
          -0.0032913999166 0.63590097427 -0.014595899731 0.0016948300181 0.63103497028 0.0073407599702
          0.003517389996 0.63592499495 0.014657200314 -0.0039138598368 0.62906801701 -0.019095500931
          -0.0083135897294 0.63154399395 -0.038263000548 0.0014194300165 0.62210601568 0.0073485597968
          0.0068983701058 0.62050902843 0.038332298398 0.0048008300364 0.62614697218 0.023684099317
          0.0024977698922 0.61806702614 0.014672899619 0.0001065969991 0.62640202045 3.7432801037e-05
          -0.0034682699479 0.62354898453 -0.019090700895 0.0094951298088 0.62542700768 0.047373399138
          -0.0022980999202 0.61804300547 -0.014580200426 -0.0066638397984 0.62050801516 -0.038253299892
          -0.0092815998942 0.625443995 -0.047291599214 0.0085055800155 0.63154602051 0.038322601467
          -0.0032800699119 0.54155600071 -0.017994999886 0.0016716399696 0.53670698404 0.009036029689
          0.0034714199137 0.54157799482 0.018052600324 -0.0039238301106 0.53475499153 -0.023537399247
          -0.0082900198177 0.53725802898 -0.047159601003 0.0014155399986 0.52775800228 0.0090461401269
          0.0069552999921 0.52619701624 0.047226898372 0.0047947200947 0.5318390131 0.029173800722
          0.002523340052 0.52367901802 0.018072899431 8.972480282e-05 0.53207701445 3.7465699279e-05
          -0.0035094700288 0.52922397852 -0.023531200364 0.0094997901469 0.53116899729 0.058368500322
          -0.0023564500734 0.52365702391 -0.017974799499 -0.0067560099997 0.52619600296 -0.047147098929
          -0.0093200299889 0.53118497133 -0.058284100145 0.0084497602656 0.53725898266 0.04721429944
          -0.0032623501029 0.42835101485 -0.021110899746 0.0016412299592 0.42353001237 0.010590200312
          0.0034104899969 0.42837101221 0.021165000275 -0.0039326897822 0.42159700394 -0.027609700337
          -0.0082524800673 0.424131006 -0.055314600468 0.0014099399559 0.41456198692 0.010602399707
          0.0070224697702 0.41304799914 0.055380199105 0.0047834399156 0.418689996 0.034206598997
          0.0025543100201 0.41043499112 0.021189499646 6.8699402618e-05 0.41890498996 3.7495399738e-05
          -0.0035584499128 0.41605499387 -0.027602100745 0.0094982497394 0.41808599234 0.068447098136
          -0.0024282499216 0.41041600704 -0.021086400375 -0.0068671698682 0.41304698586 -0.055299498141
          -0.0093605797738 0.41809999943 -0.068360500038 0.0083720898256 0.42413300276 0.055365100503
          -0.0032398900948 0.29812499881 -0.023880500346 0.0016046500532 0.29333800077 0.011971999891
          0.003337220056 0.29814299941 0.023931499571 -0.0039409301244 0.29142999649 -0.031230000779
          -0.0082040401176 0.29399898648 -0.062563203275 0.0014024700504 0.284352988 0.011986000463
          0.0070969099179 0.28289398551 0.062627598643 0.0047674397938 0.28853499889 0.038681000471
          0.0025889500976 0.28017300367 0.023959599435 4.3968499085e-05 0.28872200847 3.7522000639e-05
          -0.0036138000432 0.28587698936 -0.031221399084 0.0094909602776 0.28800600767 0.077405497432
          -0.0025109099224 0.28015598655 -0.023852400482 -0.0069933398627 0.28289398551 -0.062545798719
          -0.0094027901068 0.28801900148 -0.077317297459 0.0082764402032 0.29399999976 0.062610201538
          -0.0032146500889 0.15303400159 -0.026257099584 0.0015630499693 0.14828599989 0.013158000074
          0.0032546101138 0.15304799378 0.026305200532 -0.0039491401985 0.14640499651 -0.03433740139
          -0.0081482501701 0.14901199937 -0.068782798946 0.001392969978 0.13928699493 0.013173599727
          0.0071751601063 0.13788899779 0.06884650141 0.0047472100705 0.14352500439 0.042521398515
          0.0026252600364 0.13504999876 0.026336500421 1.6032699932e-05 0.1436830014 3.7545498344e-05
          -0.0036739399657 0.14084400237 -0.034327801317 0.0094784302637 0.14308099449 0.085092201829
          -0.0026015199255 0.13503499329 -0.026225799695 -0.0071299602278 0.13788899779 -0.068763501942
          -0.0094461599365 0.14309099317 -0.085003003478 0.0081672500819 0.14901299775 0.068827100098