<?xml version="1.0"?>
<!--Shaheen-->
<VTKFile type="UnstructuredGrid" version="0.1" byte_order="LittleEndian">
  <UnstructuredGrid>
    <Piece NumberOfPoints="791" NumberOfCells="973">
      <Points>
        <DataArray type="Float32" NumberOfComponents="3" format="ascii">
-0.190211 -0.0618034 -0.866203 -0.17591 0.0347644 -0.761951 -0.166717 -0.0910144 -0.722131 0 -0.0768927 -0.886453 0.190211 -0.0618034 -0.866203 0.166717 -0.0910144 -0.722131 0.17591 0.0347644 -0.761951 -0.190211 0.0618034 -0.866203 -0.181592 0.2 -0.786562 -0.117557 0.161803 -0.847614 0 0.0768927 -0.886453 0.181592 0.2 -0.786562 0.190211 0.0618034 -0.866203 0.117557 0.161803 -0.847614 -0.181592 -0.2 -0.786562 -0.117557 -0.161803 -0.847614 0.181592 -0.2 -0.786562 0.117557 -0.161803 -0.847614 -0.151842 0.1125 -0.6577 0 0.2 -0.792573 0.151842 0.1125 -0.6577 -0.151842 0.225 -0.6577 0.151842 0.225 -0.6577 0.151842 -0.225 -0.6577 0 -0.2 -0.792573 -0.151842 -0.225 -0.6577 0 -7.38343e-17 -0.9 0.888988 -0.0695288 0.4 0.781994 0.0347644 0.4 0.888988 0.0695288 0.4 0.888988 -0.0695288 2.2226e-15 0.781994 0.0347644 2.2357e-15 0.888988 0.0695288 2.2226e-15 0.741126 -0.0910144 0.4 0.741126 -0.0910144 2.24071e-15 0.807252 -0.182029 0.4 0.807252 -0.182029 2.23261e-15 0.568006 0.0347644 0.4 0.542748 0.182029 0.4 0.675 0.1125 0.4 0.568006 0.0347644 2.26191e-15 0.542748 0.182029 2.265e-15 0.675 0.1125 2.2488e-15 0.461012 0.0695288 0.4 0.461012 0.0695288 2.27501e-15 0.675 0 0.4 0.675 0 2.2488e-15 0.608874 -0.0910144 0.4 0.608874 -0.0910144 2.2569e-15 0.675 0.225 0.4 0.675 0.225 2.2488e-15 0.461012 -0.0695288 0.4 0.461012 -0.0695288 2.27501e-15 0.542748 -0.182029 0.4 0.542748 -0.182029 2.265e-15 0.675 -0.225 0.4 0.675 -0.225 2.2488e-15 0.807252 0.182029 0.4 0.807252 0.182029 2.23261e-15 0.888988 -0.0695288 0.8 0.781994 0.0347644 0.8 0.888988 0.0695288 0.8 0.741126 -0.0910144 0.8 0.807252 -0.182029 0.8 0.568006 0.0347644 0.8 0.542748 0.182029 0.8 0.675 0.1125 0.8 0.461012 0.0695288 0.8 0.675 0 0.8 0.608874 -0.0910144 0.8 0.675 0.225 0.8 0.461012 -0.0695288 0.8 0.542748 -0.182029 0.8 0.675 -0.225 0.8 0.807252 0.182029 0.8 0.888988 -0.0695288 1.2 0.781994 0.0347644 1.2 0.888988 0.0695288 1.2 0.741126 -0.0910144 1.2 0.807252 -0.182029 1.2 0.568006 0.0347644 1.2 0.542748 0.182029 1.2 0.675 0.1125 1.2 0.461012 0.0695288 1.2 0.675 0 1.2 0.608874 -0.0910144 1.2 0.675 0.225 1.2 0.461012 -0.0695288 1.2 0.542748 -0.182029 1.2 0.675 -0.225 1.2 0.807252 0.182029 1.2 0.888988 -0.0695288 1.6 0.781994 0.0347644 1.6 0.888988 0.0695288 1.6 0.741126 -0.0910144 1.6 0.807252 -0.182029 1.6 0.568006 0.0347644 1.6 0.542748 0.182029 1.6 0.675 0.1125 1.6 0.461012 0.0695288 1.6 0.675 0 1.6 0.608874 -0.0910144 1.6 0.675 0.225 1.6 0.461012 -0.0695288 1.6 0.542748 -0.182029 1.6 0.675 -0.225 1.6 0.807252 0.182029 1.6 0.888988 -0.0695288 2 0.781994 0.0347644 2 0.888988 0.0695288 2 0.741126 -0.0910144 2 0.807252 -0.182029 2 0.568006 0.0347644 2 0.542748 0.182029 2 0.675 0.1125 2 0.461012 0.0695288 2 0.675 0 2 0.608874 -0.0910144 2 0.675 0.225 2 0.461012 -0.0695288 2 0.542748 -0.182029 2 0.675 -0.225 2 0.807252 0.182029 2 0.888988 -0.0695288 2.4 0.781994 0.0347644 2.4 0.888988 0.0695288 2.4 0.741126 -0.0910144 2.4 0.807252 -0.182029 2.4 0.568006 0.0347644 2.4 0.542748 0.182029 2.4 0.675 0.1125 2.4 0.461012 0.0695288 2.4 0.675 0 2.4 0.608874 -0.0910144 2.4 0.675 0.225 2.4 0.461012 -0.0695288 2.4 0.542748 -0.182029 2.4 0.675 -0.225 2.4 0.807252 0.182029 2.4 0.888988 -0.0695288 2.8 0.781994 0.0347644 2.8 0.888988 0.0695288 2.8 0.741126 -0.0910144 2.8 0.807252 -0.182029 2.8 0.568006 0.0347644 2.8 0.542748 0.182029 2.8 0.675 0.1125 2.8 0.461012 0.0695288 2.8 0.675 0 2.8 0.608874 -0.0910144 2.8 0.675 0.225 2.8 0.461012 -0.0695288 2.8 0.542748 -0.182029 2.8 0.675 -0.225 2.8 0.807252 0.182029 2.8 0.888988 -0.0695288 3.2 0.781994 0.0347644 3.2 0.888988 0.0695288 3.2 0.741126 -0.0910144 3.2 0.807252 -0.182029 3.2 0.568006 0.0347644 3.2 0.542748 0.182029 3.2 0.675 0.1125 3.2 0.461012 0.0695288 3.2 0.675 0 3.2 0.608874 -0.0910144 3.2 0.675 0.225 3.2 0.461012 -0.0695288 3.2 0.542748 -0.182029 3.2 0.675 -0.225 3.2 0.807252 0.182029 3.2 0.888988 -0.0695288 3.6 0.781994 0.0347644 3.6 0.888988 0.0695288 3.6 0.741126 -0.0910144 3.6 0.807252 -0.182029 3.6 0.568006 0.0347644 3.6 0.542748 0.182029 3.6 0.675 0.1125 3.6 0.461012 0.0695288 3.6 0.675 0 3.6 0.608874 -0.0910144 3.6 0.675 0.225 3.6 0.461012 -0.0695288 3.6 0.542748 -0.182029 3.6 0.675 -0.225 3.6 0.807252 0.182029 3.6 0.888988 -0.0695288 4 0.781994 0.0347644 4 0.888988 0.0695288 4 0.741126 -0.0910144 4 0.807252 -0.182029 4 0.568006 0.0347644 4 0.542748 0.182029 4 0.675 0.1125 4 0.461012 0.0695288 4 0.675 0 4 0.608874 -0.0910144 4 0.675 0.225 4 0.461012 -0.0695288 4 0.542748 -0.182029 4 0.675 -0.225 4 0.807252 0.182029 4 0.888988 -0.0695288 4.4 0.781994 0.0347644 4.4 0.888988 0.0695288 4.4 0.741126 -0.0910144 4.4 0.807252 -0.182029 4.4 0.568006 0.0347644 4.4 0.542748 0.182029 4.4 0.675 0.1125 4.4 0.461012 0.0695288 4.4 0.675 0 4.4 0.608874 -0.0910144 4.4 0.675 0.225 4.4 0.461012 -0.0695288 4.4 0.542748 -0.182029 4.4 0.675 -0.225 4.4 0.807252 0.182029 4.4 0.888988 -0.0695288 4.8 0.781994 0.0347644 4.8 0.888988 0.0695288 4.8 0.741126 -0.0910144 4.8 0.807252 -0.182029 4.8 0.568006 0.0347644 4.8 0.542748 0.182029 4.8 0.675 0.1125 4.8 0.461012 0.0695288 4.8 0.675 0 4.8 0.608874 -0.0910144 4.8 0.675 0.225 4.8 0.461012 -0.0695288 4.8 0.542748 -0.182029 4.8 0.675 -0.225 4.8 0.807252 0.182029 4.8 0.888988 -0.0695288 5.2 0.781994 0.0347644 5.2 0.888988 0.0695288 5.2 0.741126 -0.0910144 5.2 0.807252 -0.182029 5.2 0.568006 0.0347644 5.2 0.542748 0.182029 5.2 0.675 0.1125 5.2 0.461012 0.0695288 5.2 0.675 0 5.2 0.608874 -0.0910144 5.2 0.675 0.225 5.2 0.461012 -0.0695288 5.2 0.542748 -0.182029 5.2 0.675 -0.225 5.2 0.807252 0.182029 5.2 0.888988 -0.0695288 5.6 0.781994 0.0347644 5.6 0.888988 0.0695288 5.6 0.741126 -0.0910144 5.6 0.807252 -0.182029 5.6 0.568006 0.0347644 5.6 0.542748 0.182029 5.6 0.675 0.1125 5.6 0.461012 0.0695288 5.6 0.675 0 5.6 0.608874 -0.0910144 5.6 0.675 0.225 5.6 0.461012 -0.0695288 5.6 0.542748 -0.182029 5.6 0.675 -0.225 5.6 0.807252 0.182029 5.6 0.888988 -0.0695288 6 0.781994 0.0347644 6 0.888988 0.0695288 6 0.741126 -0.0910144 6 0.807252 -0.182029 6 0.568006 0.0347644 6 0.542748 0.182029 6 0.675 0.1125 6 0.461012 0.0695288 6 0.675 0 6 0.608874 -0.0910144 6 0.675 0.225 6 0.461012 -0.0695288 6 0.542748 -0.182029 6 0.675 -0.225 6 0.807252 0.182029 6 0.888988 -0.0695288 6.4 0.781994 0.0347644 6.4 0.888988 0.0695288 6.4 0.741126 -0.0910144 6.4 0.807252 -0.182029 6.4 0.568006 0.0347644 6.4 0.542748 0.182029 6.4 0.675 0.1125 6.4 0.461012 0.0695288 6.4 0.675 0 6.4 0.608874 -0.0910144 6.4 0.675 0.225 6.4 0.461012 -0.0695288 6.4 0.542748 -0.182029 6.4 0.675 -0.225 6.4 0.807252 0.182029 6.4 0.888988 -0.0695288 6.8 0.781994 0.0347644 6.8 0.888988 0.0695288 6.8 0.741126 -0.0910144 6.8 0.807252 -0.182029 6.8 0.568006 0.0347644 6.8 0.542748 0.182029 6.8 0.675 0.1125 6.8 0.461012 0.0695288 6.8 0.675 0 6.8 0.608874 -0.0910144 6.8 0.675 0.225 6.8 0.461012 -0.0695288 6.8 0.542748 -0.182029 6.8 0.675 -0.225 6.8 0.807252 0.182029 6.8 0.888988 -0.0695288 7.2 0.781994 0.0347644 7.2 0.888988 0.0695288 7.2 0.741126 -0.0910144 7.2 0.807252 -0.182029 7.2 0.568006 0.0347644 7.2 0.542748 0.182029 7.2 0.675 0.1125 7.2 0.461012 0.0695288 7.2 0.675 0 7.2 0.608874 -0.0910144 7.2 0.675 0.225 7.2 0.461012 -0.0695288 7.2 0.542748 -0.182029 7.2 0.675 -0.225 7.2 0.807252 0.182029 7.2 0.888988 -0.0695288 7.6 0.781994 0.0347644 7.6 0.888988 0.0695288 7.6 0.741126 -0.0910144 7.6 0.807252 -0.182029 7.6 0.568006 0.0347644 7.6 0.542748 0.182029 7.6 0.675 0.1125 7.6 0.461012 0.0695288 7.6 0.675 0 7.6 0.608874 -0.0910144 7.6 0.675 0.225 7.6 0.461012 -0.0695288 7.6 0.542748 -0.182029 7.6 0.675 -0.225 7.6 0.807252 0.182029 7.6 0.695729 -0.0695288 -0.553408 0.611995 0.0347644 -0.486803 0.695729 0.0695288 -0.553408 0.580011 -0.0910144 -0.461362 0.631762 -0.182029 -0.502526 0.444526 0.0347644 -0.353592 0.424759 0.182029 -0.337869 0.528261 0.1125 -0.420197 0.360792 0.0695288 -0.286987 0.528261 0 -0.420197 0.47651 -0.0910144 -0.379033 0.528261 0.225 -0.420197 0.360792 -0.0695288 -0.286987 0.424759 -0.182029 -0.337869 0.528261 -0.225 -0.420197 0.631762 0.182029 -0.502526 0.127774 0.0347644 -0.553448 0.122092 0.182029 -0.528838 0.103705 0.0695288 -0.449197 0.151842 0 -0.6577 0.136967 -0.0910144 -0.593269 0.103705 -0.0695288 -0.449197 0.122092 -0.182029 -0.528838 -0.888988 -0.0695288 2.2226e-15 -0.781994 0.0347644 2.2357e-15 -0.888988 0.0695288 2.2226e-15 -0.888988 -0.0695288 0.4 -0.781994 0.0347644 0.4 -0.888988 0.0695288 0.4 -0.741126 -0.0910144 2.24071e-15 -0.741126 -0.0910144 0.4 -0.807252 -0.182029 2.23261e-15 -0.807252 -0.182029 0.4 -0.568006 0.0347644 2.26191e-15 -0.542748 0.182029 2.265e-15 -0.675 0.1125 2.2488e-15 -0.568006 0.0347644 0.4 -0.542748 0.182029 0.4 -0.675 0.1125 0.4 -0.461012 0.0695288 2.27501e-15 -0.461012 0.0695288 0.4 -0.675 0 2.2488e-15 -0.675 0 0.4 -0.608874 -0.0910144 2.2569e-15 -0.608874 -0.0910144 0.4 -0.675 0.225 2.2488e-15 -0.675 0.225 0.4 -0.461012 -0.0695288 2.27501e-15 -0.461012 -0.0695288 0.4 -0.542748 -0.182029 2.265e-15 -0.542748 -0.182029 0.4 -0.675 -0.225 2.2488e-15 -0.675 -0.225 0.4 -0.807252 0.182029 2.23261e-15 -0.807252 0.182029 0.4 -0.888988 -0.0695288 0.8 -0.781994 0.0347644 0.8 -0.888988 0.0695288 0.8 -0.741126 -0.0910144 0.8 -0.807252 -0.182029 0.8 -0.568006 0.0347644 0.8 -0.542748 0.182029 0.8 -0.675 0.1125 0.8 -0.461012 0.0695288 0.8 -0.675 0 0.8 -0.608874 -0.0910144 0.8 -0.675 0.225 0.8 -0.461012 -0.0695288 0.8 -0.542748 -0.182029 0.8 -0.675 -0.225 0.8 -0.807252 0.182029 0.8 -0.888988 -0.0695288 1.2 -0.781994 0.0347644 1.2 -0.888988 0.0695288 1.2 -0.741126 -0.0910144 1.2 -0.807252 -0.182029 1.2 -0.568006 0.0347644 1.2 -0.542748 0.182029 1.2 -0.675 0.1125 1.2 -0.461012 0.0695288 1.2 -0.675 0 1.2 -0.608874 -0.0910144 1.2 -0.675 0.225 1.2 -0.461012 -0.0695288 1.2 -0.542748 -0.182029 1.2 -0.675 -0.225 1.2 -0.807252 0.182029 1.2 -0.888988 -0.0695288 1.6 -0.78199
[...]
      <PointData>
        <DataArray type="Float32" Name="displacement" NumberOfComponents="3" format="ascii">
-0.0510564 0.155474 0.000741426 0.0299135 0.146917 -0.000671806 -0.0777562 0.140556 0.00202013 -0.0630081 -1.84274e-05 -6.46742e-06 -0.051053 -0.155485 -0.000741554 -0.0777895 -0.14058 -0.00202856 0.0298894 -0.146938 0.00066698 0.0517687 0.155363 -0.000704031 0.171668 0.152092 -0.00474926 0.135562 0.0967686 -0.000912435 0.063574 -1.0598e-05 -3.1145e-06 0.171662 -0.152112 0.00475125 0.0517631 -0.155382 0.000703373 0.135585 -0.0967889 0.000906918 -0.171054 0.152041 0.00476647 -0.134915 0.097017 0.00113523 -0.171031 -0.152054 -0.00477397 -0.134832 -0.097038 -0.00114998 0.0975199 0.130016 -0.0028704 0.170955 -1.0937e-05 -3.46076e-06 0.0975083 -0.130038 0.00287011 0.194879 0.13047 -0.00559549 0.194858 -0.13049 0.00559529 -0.194224 -0.130273 -0.00564643 -0.170255 -7.18031e-06 -9.20717e-06 -0.194257 0.130245 0.00563384 0.00041009 -1.44148e-05 -3.95897e-06 -0.0613942 -0.879987 -0.00786396 0.0307529 -0.785482 0.00418661 0.0614854 -0.879992 0.00829254 -0.060621 -0.831157 -0.00752581 0.0305668 -0.737473 0.00403331 0.060902 -0.831137 0.00794641 -0.0803336 -0.749385 -0.0103103 -0.0795905 -0.70168 -0.00989808 -0.160721 -0.807763 -0.0209835 -0.159291 -0.759709 -0.0200624 0.0307292 -0.596538 0.00414612 0.160694 -0.574201 0.0212846 0.09937 -0.690991 0.0131196 0.0306688 -0.549745 0.00391793 0.160084 -0.527782 0.0201591 0.0988049 -0.643712 0.0125719 0.0613946 -0.502077 0.00820898 0.0613079 -0.455832 0.00771355 4.47376e-05 -0.691002 0.000158488 0.000137297 -0.643656 0.000156535 -0.0802986 -0.632611 -0.0103536 -0.079743 -0.585667 -0.00983251 0.198681 -0.690955 0.026324 0.197545 -0.64388 0.0251678 -0.0613091 -0.502075 -0.0079789 -0.061005 -0.455839 -0.0074993 -0.160605 -0.574197 -0.0210577 -0.159815 -0.527796 -0.0199572 -0.198596 -0.690957 -0.0259702 -0.197259 -0.643868 -0.0248162 0.16081 -0.807763 0.0213252 0.159571 -0.759714 0.0204392 -0.0619861 -0.927393 -0.00713637 0.0308946 -0.83219 0.00382149 0.0619105 -0.927399 0.00754438 -0.080984 -0.795787 -0.00936574 -0.162065 -0.854438 -0.0190443 0.0308004 -0.642063 0.00377981 0.161416 -0.619431 0.0193389 0.0999173 -0.736977 0.0119466 0.0615594 -0.547153 0.00746313 -4.05339e-05 -0.737067 0.000158089 -0.0808304 -0.678281 -0.00939044 0.199879 -0.736721 0.0239288 -0.061643 -0.547144 -0.00721854 -0.161489 -0.61943 -0.0190993 -0.19996 -0.736726 -0.0235808 0.161975 -0.854437 0.0193865 -0.0625504 -0.967459 -0.00545018 0.0310443 -0.871592 0.00297472 0.0623404 -0.967473 0.00584152 -0.0815877 -0.834909 -0.00716078 -0.163294 -0.893839 -0.0146136 0.0308785 -0.680341 0.00294187 0.162094 -0.65744 0.0149075 0.100437 -0.775712 0.00921834 0.0617253 -0.58497 0.00577493 -0.00010954 -0.775865 0.000158693 -0.0813196 -0.716709 -0.00718106 0.200982 -0.775278 0.0184422 -0.0619511 -0.584955 -0.00551548 -0.1623 -0.657438 -0.0146522 -0.201202 -0.775289 -0.0180982 0.163062 -0.893839 0.01495 -0.0630468 -0.995121 -0.00296849 0.0311894 -0.898644 0.00173067 0.0627315 -0.99514 0.00334232 -0.0821357 -0.861706 -0.00391578 -0.164414 -0.920905 -0.0080949 0.0309683 -0.706336 0.00170591 0.162777 -0.683201 0.00839629 0.100938 -0.80215 0.00520507 0.0619116 -0.610525 0.00329307 -0.000163492 -0.802355 0.000158954 -0.0817778 -0.742853 -0.00393101 0.20204 -0.80157 0.0103803 -0.0622479 -0.610505 -0.00301799 -0.163087 -0.683199 -0.00812591 -0.202369 -0.801583 -0.0100415 0.16407 -0.920905 0.00842642 -0.0634842 -1.00628 0.00014117 0.0313334 -0.909242 0.000172552 0.0630941 -1.0063 0.000214884 -0.08263 -0.872074 0.000151034 -0.165422 -0.931536 6.66482e-05 0.0310695 -0.715944 0.000156185 0.163456 -0.692608 0.000239512 0.101421 -0.812187 0.000175741 0.062116 -0.619703 0.000182089 -0.000201914 -0.812432 0.000159281 -0.082203 -0.752609 0.000140867 0.203043 -0.811496 0.000286296 -0.0625312 -0.61968 0.000108372 -0.16384 -0.692605 4.64502e-05 -0.203448 -0.811512 4.753e-05 0.164998 -0.931536 0.000259826 -0.0638596 -0.997798 0.00370811 0.0314751 -0.900259 -0.00161419 0.0634252 -0.997822 -0.00336977 -0.0830692 -0.862888 0.00481651 -0.166318 -0.922605 0.00942581 0.031182 -0.706038 -0.00162235 0.164134 -0.682535 -0.00911441 0.101883 -0.802698 -0.00559362 0.0623392 -0.609381 -0.00338604 -0.000224778 -0.80297 0.000159565 -0.082595 -0.742852 0.00481149 0.203991 -0.80193 -0.0112879 -0.0628015 -0.609354 0.00369185 -0.164561 -0.682532 0.00941576 -0.204442 -0.801948 0.0116166 0.165846 -0.922605 -0.00910436 -0.064174 -0.96755 0.00756178 0.0316146 -0.86956 -0.00354426 0.0637253 -0.967576 -0.00724078 -0.0834538 -0.83201 0.00985738 -0.167102 -0.891975 0.019535 0.0313057 -0.674482 -0.00354433 0.164808 -0.650847 -0.0192186 0.102326 -0.771546 -0.011827 0.0625805 -0.577421 -0.00724088 -0.000232294 -0.771833 0.000159833 -0.0829538 -0.711445 0.00985733 0.204884 -0.770737 -0.0237892 -0.0630586 -0.577394 0.00756167 -0.165249 -0.650845 0.019535 -0.20535 -0.770756 0.0241129 0.166613 -0.891975 -0.0192185 -0.0644286 -0.914375 0.0115358 0.0317517 -0.815986 -0.00553444 0.0639947 -0.914401 -0.0112314 -0.0837845 -0.778282 0.0150561 -0.167775 -0.838488 0.0299585 0.0314396 -0.62012 -0.00552677 0.165478 -0.596385 -0.0296373 0.102748 -0.717572 -0.0182553 0.0628383 -0.522669 -0.011216 -0.000224934 -0.717862 0.000160079 -0.0832794 -0.65723 0.0150608 0.205721 -0.716756 -0.0366787 -0.063302 -0.522641 0.0115512 -0.165903 -0.596382 0.029968 -0.206172 -0.716775 0.0369975 0.1673 -0.838488 -0.0296468 -0.0646258 -0.838056 0.0154729 0.031886 -0.739319 -0.00750607 0.0642344 -0.838082 -0.0151841 -0.0840628 -0.701486 0.020207 -0.168341 -0.761923 0.0402839 0.0315826 -0.542731 -0.00749114 0.166138 -0.518929 -0.0399584 0.103149 -0.640558 -0.0246244 0.0631102 -0.444907 -0.0151541 -0.000203456 -0.64084 0.000160304 -0.0835717 -0.579987 0.0202162 0.206501 -0.639764 -0.0494467 -0.0635306 -0.44488 0.0155028 -0.166522 -0.518927 0.0403025 -0.206909 -0.639783 0.0497612 0.16791 -0.761924 -0.0399769 -0.0647687 -0.739251 0.0192296 0.0320171 -0.640215 -0.00938745 0.0644454 -0.739275 -0.018955 -0.0842905 -0.602275 0.0251225 -0.168804 -0.662935 0.0501356 0.0317329 -0.442974 -0.00936587 0.166785 -0.419133 -0.0498062 0.103527 -0.541157 -0.0307024 0.0633927 -0.344793 -0.0189117 -0.000168893 -0.541421 0.000160507 -0.0838306 -0.480373 0.0251358 0.207222 -0.540414 -0.0616286 -0.0637431 -0.344768 0.0192728 -0.167101 -0.419131 0.0501623 -0.207561 -0.540431 0.0619393 0.168444 -0.662935 -0.049833 -0.0648617 -0.619398 0.0226813 0.0321444 -0.520111 -0.0111162 0.0646296 -0.619419 -0.0224192 -0.0844702 -0.482086 0.0296395 -0.169171 -0.542955 0.0591864 0.0318884 -0.322285 -0.0110887 0.167411 -0.29843 -0.058854 0.103881 -0.420804 -0.0362876 0.0636814 -0.223767 -0.0223641 -0.000122522 -0.421041 0.000160689 -0.0840558 -0.359822 0.0296565 0.207884 -0.420134 -0.0728201 -0.0639378 -0.223745 0.0227363 -0.167636 -0.298428 0.0592205 -0.20813 -0.42015 0.0731279 0.168906 -0.542956 -0.058888 -0.0649095 -0.480595 0.0257263 0.0322675 -0.381101 -0.0126416 0.0647891 -0.480613 -0.0254749 -0.0846049 -0.343011 0.0336254 -0.169448 -0.404076 0.0671704 0.0320465 -0.182758 -0.012609 0.16801 -0.158911 -0.0668357 0.104209 -0.281589 -0.0412161 0.063971 -0.083928 -0.0254096 -6.58255e-05 -0.281794 0.00016085 -0.0842473 -0.220428 0.0336455 0.208484 -0.281012 -0.0826925 -0.0641125 -0.0839085 0.0257916 -0.168125 -0.15891 0.0672108 -0.208616 -0.281025 0.082998 0.169299 -0.404076 -0.066876 -0.0649181 -0.325453 0.0282908 0.0323858 -0.225793 -0.0139267 0.0649264 -0.325468 -0.0280479 -0.084698 -0.187655 0.0369834 -0.169645 -0.248899 0.0738935 0.0322046 -0.0270018 -0.0138899 0.168573 -0.00318079 -0.0735573 0.10451 -0.126118 -0.0453681 0.0642556 0.0721136 -0.0279742 -4.36527e-07 -0.126287 0.000160989 -0.0844047 -0.064795 0.0370062 0.209021 -0.125645 -0.0910056 -0.0642645 0.0721295 0.0283644 -0.16856 -0.00317932 0.0739391 -0.209022 -0.125656 0.09131 0.16963 -0.2489 -0.0736028 -0.0648937 -0.156926 0.0303317 0.032499 -0.0571373 -0.01495 0.0650446 -0.156938 -0.0300952 -0.0847533 -0.0189665 0.0396576 -0.16977 -0.0803711 0.0792433 0.0323595 0.142033 -0.0149099 0.16909 0.165817 -0.0789066 0.104782 0.0426627 -0.0486746 0.0645286 0.241403 -0.030015 7.19337e-05 0.0425331 0.000161107 -0.0845275 0.104128 0.0396824 0.209492 0.0430266 -0.0976205 -0.0643909 0.241415 0.0304118 -0.168935 0.165818 0.0792928 -0.209349 0.0430181 0.0979248 0.169903 -0.0803714 -0.0789561 -0.064843 0.0218783 0.0318404 0.0326066 0.121763 -0.0157073 0.0651471 0.0218701 -0.0316082 -0.0847746 0.159954 0.0416369 -0.169834 0.098411 0.083197 0.0325081 0.321244 -0.0156649 0.169552 0.344983 -0.0828609 0.105023 0.221655 -0.0511218 0.0647832 0.420833 -0.0315232 0.000149574 0.221563 0.000161203 -0.0846152 0.28324 0.0416631 0.209897 0.221911 -0.102509 -0.0644884 0.420841 0.0319253 -0.169245 0.344984 0.0832496 -0.209598 0.221905 0.102815 0.170125 0.0984107 -0.0829134 -0.0647729 0.207906 0.0328451 0.0327085 0.307856 -0.0162129 0.0652377 0.207901 -0.0326152 -0.084766 0.346058 0.0429583 -0.169846 0.284402 0.0858286 0.0326472 0.507579 -0.0161689 0.169948 0.531273 -0.0854941 0.105231 0.407812 -0.0527555 0.0650122 0.607347 -0.0325271 0.000230861 0.407755 0.000161278 -0.0846669 0.469494 0.0429855 0.210232 0.407971 -0.105763 -0.0645531 0.607352 0.0329332 -0.169481 0.531274 0.085883 -0.20977 0.407967 0.106071 0.170303 0.284402 -0.0855485 -0.0646906 0.398371 0.0334125 0.0328048 0.498364 -0.0165002 0.0653207 0.398369 -0.0331832 -0.0847314 0.53657 0.0437092 -0.169818 0.474829 0.087313 0.032774 0.69826 -0.0164553 0.170267 0.721914 -0.0869812 0.105406 0.598359 -0.053684 0.0652082 0.798161 -0.0330933 0.000314354 0.598331 0.000161332 -0.0846815 0.660113 0.043737 0.210497 0.598438 -0.107598 -0.0645808 0.798163 0.0335024 -0.169636 0.721914 0.0873686 -0.209869 0.598436 0.10791 0.170445 0.474829 -0.0870368 -0.0646024 0.590989 0.0336491 0.0328959 0.691004 -0.0166231 0.0654006 0.590988 -0.0334187 -0.0846742 0.72921 0.0440304 -0.16976 0.667415 0.0879286 0.0328857 0.891003 -0.0165778 0.1705 0.914628 -0.0876012 0.105545 0.791019 -0.054081 0.0653648 0.990987 -0.0333281 0.000398895 0.79101 0.000161364 -0.0846578 0.852816 0.0440584 0.210691 0.791043 -0.10836 -0.0645673 0.990988 0.0337397 -0.169702 0.914628 0.0879846 -0.209893 0.791043 0.108676 0.170557 0.667415 -0.0876572 -0.0645157 0.784204 0.0337027 0.0329827 0.884225 -0.0166531 0.0654832 0.784204 -0.0334714 -0.0845983 0.922431 0.0441088 -0.169683 0.860618 0.0880662 0.0329797 1.08426 -0.0166077 0.170636 1.10787 -0.0877417 0.105648 0.984247 -0.054178 0.0654743 1.18427 -0.0333806 0.00048371 0.984244 0.000161375 -0.0845934 1.04606 0.0441369 0.210812 0.984251 -0.10853 -0.0645069 1.18427 0.0337935 -0.169668 1.10787 0.0881223 -0.209845 0.984251 0.10885 0.17065 0.860618 -0.0877978 -0.0605474 -0.604484 -0.0064103 0.0306138 -0.53807 0.00329027 0.0611702 -0.604485 0.00679925 -0.0790031 -0.512761 -0.0078849 -0.158273 -0.554025 -0.0165567 0.0305376 -0.404296 0.00294402 0.158986 -0.389046 0.015131 0.0981911 -0.471565 0.00969638 0.06097 -0.337116 0.0056557 0.000276681 -0.471348 0.0001163 -0.0789923 -0.430089 -0.00748374 0.196181 -0.472103 0.0195887 -0.0604809 -0.337112 -0.00552067 -0.158539 -0.389057 -0.0149718 -0.195659 -0.47214 -0.0193201 0.158848 -0.554041 0.016792 0.0304866 -0.11243 0.000902748 0.158432 -0.108578 0.00477126 0.0607599 -0.0947712 0.0017838 0.000285466 -0.129916 -4.97499e-06 -0.0786672 -0.119223 -0.00227195 -0.0602511 -0.0947531 -0.00173461 -0.157858 -0.108603 -0.00467345 -0.0606185 0.831164 0.00752268 0.0305771 0.737474 -0.00403363 0.0609135 0.831144 -0.00794696 -0.061392 0.879986 0.00786064 0.0307611 0.785475 -0.00418753 0.0614959 0.879991 -0.00829312 -0.0795869 0.701677 0.00989564 -0.0803333 0.749375 0.0103072 -0.159296 0.759711 0.0200575 -0.160725 0.807757 0.0209785 0.0306789 0.549733 -0.00391763 0.160103 0.527768 -0.0201557 0.0988196 0.643706 -0.0125703 0.0307375 0.596518 -0.00414594 0.160711 0.574179 -0.0212815 0.099383 0.690977 -0.0131184 0.0613201 0.455813 -0.00771218 0.0614051 0.50205 -0.00820764 0.000145422 0.64365 -0.000157016 5.08916e-05 0.690988 -0.000159513 -0.0797403 0.585657 0.00983023 -0.0802981 0.632593 0.0103512 0.197566 0.643874 -0.0251641 0.198701 0.690941 -0.0263207 -0.0610011 0.45582 0.0074979 -0.0613072 0.502048 0.00797763 -0.159818 0.527782 0.0199531 -0.16061 0.574175 0.0210539 -0.197266 0.643861 0.0248103 -0.198603 0.690943 0.0259652 0.15959 0.759717 -0.0204369 0.160827 0.807757 -0.0213234 -0.0619858 0.927385 0.00713354 0.0309013 0.832175 -0.00382228 0.0619193 0.927392 -0.00754506 -0.0809849 0.79577 0.00936313 -0.162072 0.854426 0.01904 0.030807 0.642036 -0.00377985 0.161432 0.619402 -0.0193366 0.0999287 0.736956 -0.0119458 0.0615682 0.547119 -0.00746222 -3.59944e-05 0.737046 -0.000159066 -0.0808314 0.678256 0.00938827 0.199897 0.7367 -0.0239262 -0.0616427 0.54711 0.00721725 -0.161496 0.619401 0.0190959 -0.199969 0.736706 0.0235762 0.161991 0.854424 -0.0193851 -0.0625514 0.967446 0.00544769 0.0310497 0.871572 -0.00297558 0.0623479 0.96746 -0.00584225 -0.0815902 0.834886 0.00715846 -0.163302 0.893821 0.0146099 0.0308839 0.680308 -0.00294208 0.162108 0.657405 -0.0149058 0.100447 0.775685 -0.0092179 0.0617328 0.58493 -0.00577439 -0.00010632 0.775839 -0.000159659 -0.081322 0.716679 0.00717915 0.200999 0.775252 -0.0184404 -0.0619522 0.584915 0.00551427 -0.162308 0.657403 0.0146494 -0.201213 0.775262 0.0180944 0.163076 0.89382 -0.0149491 -0.0630489 0.995103 0.00296638 0.0311937 0.89862 -0.00173158 0.062738 0.995122 -0.00334317 -0.0821392 0.861679 0.00391382 -0.164423 0.920883 0.00809197 0.0309727 0.706299 -0.00170632 0.16279 0.683162 -0.0083953 0.100948 0.802119 -0.00520503 0.0619181 0.610481 -0.00329291 -0.000161332 0.802324 -0.00015993 -0.0817814 0.742818 0.00392936 0.202057 0.801539 -0.0103793 -0.0622501 0.610461 0.00301689 -0.163096 0.68316 0.0081236 -0.20238 0.801552 0.0100385 0.164083 0.920882 -0.00842605 -0.0634871 1.00626 -0.000142896 0.0313369 0.909214 -0.000173536 0.0630998 1.00628 -0.000215873 -0.0826343 0.872045 -0.000152609 -0.165432 0.93151 -6.88225e-05 0.031073 0.715903 -0.000156787 0.163469 0.692566 -0.000239291 0.101429 0.812153 -0.000176123 0.0621217 0.619656 -0.000182317 -0.000200573 0.812398 -0.000160257 -0.0822074 0.752571 -0.000142205 0.203058 0.811462 -0.000286083 -0.0625342 0.619632 -0.000109334 -0.16385 0.692563 -4.81545e-05 -0.203461 0.811478 -4.96956e-05 0.16501 0.93151 -0.000260076 -0.0638631 0.997776 -0.00370946 0.031478 0.900231 0.00161313 0.0634302 0.997801 0.00336861 -0.0830742 0.862857 -0.00481769 -0.166329 0.922578 -0.00942721 0.031185 0.705996 0.00162155 0.164146 0.682492 0.00911385 0.101891 0.802662 0.0055928 0.0623443 0.609332 0.00338542 -0.000224039 0.802934 -0.000160543 -0.0826 0.742813 -0.00481251 0.204006 0.801895 0.0112873 -0.0628051 0.609306 -0.00369266 -0.164572 0.682489 -0.00941682 -0.204455 0.801913 -0.0116179 0.165858 0.922578 0.00910346 -0.064178 0.967529 -0.00756275 0.0316171 0.869532 0.0035431 0.06373 0.967555 0.00723945 -0.0834592 0.831979 -0.00985818 -0.167113 0.891949 -0.0195357 0.0313082 0.674441 0.00354334 0.16482 0.650804 0.0192173 0.102333 0.771511 0.0118257 0.0625852 0.577373 0.00723989 -0.000231962 0.771798 -0.000160813 -0.0829592 0.711406 -0.00985802 0.204898 0.770702 0.0237876 -0.0630627 0.577346 -0.0075623 -0.16526 0.650801 -0.0195354 -0.205363 0.770721 -0.0241132 0.166625 0.891949 0.019217 -0.0644329 0.914355 -0.0115364 0.031754 0.81596 0.00553319 0.0639992 0.914382 0.0112299 -0.0837902 0.778253 -0.0150565 -0.167786 0.838463 -0.0299583 0.0314419 0.62008 0.0055256 0.165489 0.596344 0.0296352 0.102755 0.717539 0.0182536 0.0628429 0.522622 0.0112147 -0.000224832 0.717829 -0.00016106 -0.0832851 0.657192 -0.0150612 0.205735 0.716722 0.0366762 -0.0633063 0.522595 -0.0115516 -0.165915 0.596341 -0.0299678 -0.206186 0.716742 -0.0369971 0.167312 0.838464 0.0296446 -0.0646301 0.83804 -0.0154731 0.0318883 0.739296 0.00750473 0.0642388 0.838065 0.0151824 -0.0840685 0.70146 -0.020207 -0.168352 0.761902 -0.0402831 0.0315848 0.542695 0.0074898 0.16615 0.518891 0.0399556 0.103156 0.640529 0.0246223 0.0631147 0.444863 0.0151524 -0.000203427 0.64081 -0.000161286 -0.0835775 0.579954 -0.0202163 0.206515 0.639735 0.0494434 -0.063535 0.444837 -0.0155031 -0.166533 0.518888 -0.0403016 -0.206923 0.639753 -0.0497599 0.167921 0.761903 0.0399741 -0.064773 0.739239 -0.0192296 0.0320194 0.640197 0.00938603 0.0644499 0.739263 0.0189531 -0.0842962 0.602255 -0.0251222 -0.168815 0.662918 -0.050134 0.0317352 0.442943 0.00936438 0.166796 0.4191 0.0498027 0.103534 0.541132 0.0306999 0.0633973 0.344755 0.0189097 -0.000168798 0.541396 -0.000161491 -0.0838363 0.480344 -0.0251356 0.207237 0.540389 0.0616245 -0.0637475 0.34473 -0.0192729 -0.167112 0.419097 -0.0501608 -0.207575 0.540406 -0.0619372 0.168456 0.662919 0.0498295 -0.0648658 0.619392 -0.0226809 0.0321469 0.520099 0.0111147 0.0646343 0.619414 0.0224172 -0.0844757 0.482071 -0.0296389 -0.169182 0.542945 -0.0591842 0.0318909 0.322259 0.0110871 0.167423 0.298403 0.0588498 0.103888 0.420785 0.0362848 0.0636861 0.223735 0.0223618 -0.000122243 0.421023 -0.000161674 -0.0840614 0.359799 -0.029656 0.207898 0.420115 0.0728154 -0.063942 0.223712 -0.0227363 -0.167648 0.298401 -0.0592185 -0.208144 0.420131 -0.0731251 0.168918 0.542945 0.058884 -0.0649134 0.480597 -0.0257258 0.0322703 0.381096 0.01264 0.0647941 0.480616 0.0254727 -0.0846101 0.343003 -0.0336246 -0.169459 0.404073 -0.0671677 0.0320493 0.18274 0.0126073 0.168022 0.158891 0.066831 0.104217 0.281578 0.0412129 0.063976 0.0839028 0.0254071 -6.52623e-05 0.281783 -0.000161836 -0.0842526 0.220412 -0.0336448 0.208499 0.281 0.0826871 -0.0641164 0.0838834 -0.0257914 -0.168136 0.15889 -0.0672083 -0.20863 0.281014 -0.0829946 0.169312 0.404073 0.0668716 -0.0649216 0.325464 -0.02829 0.032389 0.225797 0.013925 0.0649318 0.325479 0.0280456 -0.0847029 0.187656 -0.0369824 -0.169656 0.248905 -0.0738904 0.0322077 0.0269918 0.013888 0.168585 0.00316919 0.0735523 0.104518 0.126115 0.0453647 0.064261 -0.0721305 0.0279715 4.92352e-07 0.126284 -0.000161976 -0.0844096 0.0647876 -0.0370052 0.209036 0.125642 0.0909997 -0.0642681 -0.0721464 -0.0283641 -0.16857 0.00316772 -0.0739362 -0.209036 0.125653 -0.0913061 0.169643 0.248905 0.073598 -0.0648968 0.156946 -0.0303308 0.0325026 0.0571502 0.0149483 0.0650504 0.156958 0.0300928 -0.0847578 0.0189767 -0.0396564 -0.16978 0.0803856 -0.0792398 0.0323631 -0.142034 0.014908 0.169103 -0.165819 0.0789012 0.104791 -0.0426567 0.048671 0.0645345 -0.241411 0.0300121 7.32919e-05 -0.0425271 -0.000162094 -0.084532 -0.104126 -0.0396813 0.209508 -0.0430205 0.0976142 -0.0643941 -0.241423 -0.0304114 -0.168946 -0.16582 -0.0792897 -0.209362 -0.0430121 -0.0979205 0.169916 0.0803859 0.078951 -0.0648456 -0.0218487 -0.0318394 0.0326107 -0.12174 0.0157056 0.0651534 -0.0218406 0.0316057 -0.0847786 -0.159934 -0.0416356 -0.169844 -0.0983867 -0.0831933 0.0325121 -0.321235 0.0156629 0.169565 -0.344976 0.0828553 0.105032 -0.221639 0.051118 0.0647895 -0.420831 0.0315202 0.000151408 -0.221548 -0.000162191 -0.0846192 -0.283229 -0.0416619 0.209913 -0.221895 0.102503 -0.0644911 -0.420839 -0.0319249 -0.169255 -0.344977 -0.0832462 -0.20961 -0.22189 -0.10281 0.170139 -0.0983865 0.0829081 -0.0647751 -0.207866 -0.032844 0.0327131 -0.307824 0.0162112 0.0652445 -0.207861 0.0326127 -0.0847695 -0.346028 -0.0429568 -0.169856 -0.284368 -0.0858247 0.0326518 -0.50756 0.0161669 0.169962 -0.531256 0.0854883 0.105241 -0.407786 0.0527516 0.065019 -0.607334 0.032524 0.000233203 -0.407729 -0.000162267 -0.0846704 -0.469472 -0.0429842 0.210249 -0.407945 0.105756 -0.0645553 -0.60734 -0.0329327 -0.169491 -0.531256 -0.0858795 -0.209783 -0.407941 -0.106066 0.170317 -0.284368 0.085543 -0.0646922 -0.398321 -0.0334114 0.03281 -0.498321 0.0164985 0.0653281 -0.398319 0.0331807 -0.0847344 -0.53653 -0.0437078 -0.169827 -0.474784 -0.087309 0.0327791 -0.698231 0.0164533 0.170282 -0.721886 0.0869753 0.105416 -0.598323 0.0536801 0.0652156 -0.798138 0.0330902 0.000317223 -0.598294 -0.000162321 -0.0846845 -0.66008 -0.0437357 0.210515 -0.598402 0.107592 -0.0645825 -0.798141 -0.0335018 -0.16