<VTKFile type="UnstructuredGrid" version="1.0" byte_order="LittleEndian" header_type="UInt64">
  <UnstructuredGrid>
    <Piece NumberOfPoints="791" NumberOfCells="973">
      <PointData>
        <DataArray type="Float32" Name="displacement" NumberOfComponents="3" format="ascii" RangeMin="0" RangeMax="1.1865482035">
          -0.051056399941 0.15547400713 0.00074142601807 0.029913499951 0.14691700041 -0.00067180598853
          -0.077756203711 0.14055599272 0.002020129934 -0.063008099794 -1.8427399482e-05 -6.4674200075e-06
          -0.051052998751 -0.15548500419 -0.00074155401671 -0.077789500356 -0.14057999849 -0.0020285600331
          0.029889399186 -0.14693799615 0.00066697999137 0.051768701524 0.15536299348 -0.00070403097197
          0.17166799307 0.15209199488 -0.0047492599115 0.13556200266 0.096768602729 -0.00091243500356
          0.063574001193 -1.059799979e-05 -3.1145000321e-06 0.1716620028 -0.15211200714 0.0047512501478
          0.051763098687 -0.15538200736 0.00070337299258 0.13558499515 -0.09678889811 0.00090691802325
          -0.17105400562 0.15204100311 0.0047664698213 -0.13491499424 0.097016997635 0.001135229948
          -0.17103099823 -0.15205399692 -0.0047739702277 -0.13483199477 -0.097038000822 -0.0011499800021
          0.097519896924 0.13001599908 -0.0028703999706 0.17095500231 -1.0937000297e-05 -3.4607598991e-06
          0.097508296371 -0.13003799319 0.0028701100964 0.19487899542 0.13046999276 -0.0055954898708
          0.19485799968 -0.13049000502 0.0055952901021 -0.19422399998 -0.13027299941 -0.005646429956
          -0.17025500536 -7.1803101491e-06 -9.207169569e-06 -0.19425700605 0.13024500012 0.0056338398717
          0.00041008999688 -1.4414799807e-05 -3.9589699554e-06 -0.061394199729 -0.87998700142 -0.0078639602289
          0.030752899125 -0.78548198938 0.0041866102256 0.061485398561 -0.87999200821 0.0082925399765
          -0.060621000826 -0.83115702868 -0.0075258100405 0.030566800386 -0.73747301102 0.0040333098732
          0.060901999474 -0.83113700151 0.0079464102164 -0.080333597958 -0.74938499928 -0.010310299695
          -0.079590499401 -0.7016800046 -0.0098980795592 -0.16072100401 -0.80776298046 -0.020983500406
          -0.15929099917 -0.75970900059 -0.020062400028 0.030729200691 -0.59653800726 0.0041461200453
          0.16069400311 -0.57420098782 0.02128460072 0.099370002747 -0.69099098444 0.013119599782
          0.030668800697 -0.54974502325 0.0039179301821 0.16008399427 -0.52778202295 0.020159099251
          0.09880489856 -0.64371198416 0.012571900152 0.061394598335 -0.50207698345 0.0082089798525
          0.061307899654 -0.45583200455 0.0077135497704 4.4737600547e-05 -0.6910020113 0.00015848799376
          0.00013729700004 -0.6436560154 0.00015653499577 -0.080298602581 -0.6326109767 -0.010353599675
          -0.079742997885 -0.58566701412 -0.0098325097933 0.19868099689 -0.69095498323 0.02632400021
          0.19754500687 -0.64388000965 0.025167800486 -0.061309099197 -0.5020750165 -0.0079789003357
          -0.061005000025 -0.45583900809 -0.0074992999434 -0.16060499847 -0.5741969943 -0.021057700738
          -0.15981499851 -0.52779597044 -0.019957199693 -0.19859600067 -0.69095700979 -0.025970200077
          -0.19725899398 -0.64386802912 -0.024816200137 0.16080999374 -0.80776298046 0.021325200796
          0.15957100689 -0.75971400738 0.020439200103 -0.061986099929 -0.9273930192 -0.0071363700554
          0.030894599855 -0.83218997717 0.0038214900997 0.061910498887 -0.92739897966 0.007544380147
          -0.080983996391 -0.79578697681 -0.0093657402322 -0.16206499934 -0.85443800688 -0.019044300541
          0.030800400302 -0.64206302166 0.003779809922 0.16141599417 -0.61943101883 0.019338900223
          0.099917300045 -0.73697698116 0.011946599931 0.061559401453 -0.54715299606 0.0074631301686
          -4.0533901483e-05 -0.73706698418 0.00015808899479 -0.080830402672 -0.6782810092 -0.0093904398382
          0.19987900555 -0.73672097921 0.023928800598 -0.061643000692 -0.54714399576 -0.0072185401805
          -0.16148899496 -0.61943000555 -0.019099300727 -0.19995999336 -0.736725986 -0.023580800742
          0.16197499633 -0.8544369936 0.01938650012 -0.062550403178 -0.967459023 -0.0054501798004
          0.031044300646 -0.87159198523 0.0029747199733 0.062340401113 -0.96747297049 0.0058415201493
          -0.081587702036 -0.83490902185 -0.0071607800201 -0.16329400241 -0.89383900166 -0.014613600448
          0.03087849915 -0.68034100533 0.0029418698978 0.162093997 -0.65744000673 0.014907499775
          0.10043700039 -0.77571201324 0.0092183398083 0.061725299805 -0.58496999741 0.0057749301195
          -0.00010954000027 -0.77586501837 0.00015869300114 -0.081319600344 -0.71670901775 -0.0071810600348
          0.2009820044 -0.77527797222 0.018442200497 -0.061951100826 -0.58495497704 -0.0055154799484
          -0.16230000556 -0.65743798018 -0.014652200043 -0.20120200515 -0.77528899908 -0.01809819974
          0.16306200624 -0.89383900166 0.01494999975 -0.06304679811 -0.9951210022 -0.0029684898909
          0.031189400703 -0.89864397049 0.0017306699883 0.06273149699 -0.99514001608 0.0033423199784
          -0.082135699689 -0.86170601845 -0.0039157802239 -0.16441400349 -0.92090499401 -0.0080949002877
          0.030968299136 -0.70633602142 0.0017059099628 0.16277700663 -0.683201015 0.0083962902427
          0.10093799978 -0.80215001106 0.0052050701343 0.061911601573 -0.61052501202 0.0032930700108
          -0.0001634920045 -0.80235499144 0.00015895400429 -0.0817778036 -0.74285298586 -0.003931010142
          0.20204000175 -0.80156999826 0.010380299762 -0.06224789843 -0.61050498486 -0.0030179899186
          -0.16308699548 -0.68319898844 -0.0081259096041 -0.20236900449 -0.80158299208 -0.010041500442
          0.16406999528 -0.92090499401 0.0084264203906 -0.063484199345 -1.0062799454 0.00014117000683
          0.031333401799 -0.90924197435 0.00017255199782 0.063094101846 -1.0062999725 0.00021488399943
          -0.082630001009 -0.87207400799 0.00015103399346 -0.16542200744 -0.93153601885 6.6648201027e-05
          0.031069500372 -0.71594399214 0.0001561849931 0.16345599294 -0.69260799885 0.00023951199546
          0.10142099857 -0.81218701601 0.00017574100639 0.062116000801 -0.61970299482 0.00018208900292
          -0.00020191399381 -0.8124319911 0.00015928100038 -0.082203000784 -0.75260901451 0.00014086700685
          0.20304299891 -0.81149601936 0.00028629601002 -0.062531203032 -0.61967998743 0.00010837199807
          -0.16383999586 -0.69260501862 4.6450200898e-05 -0.20344799757 -0.81151199341 4.7530000302e-05
          0.1649979949 -0.93153601885 0.00025982598891 -0.063859596848 -0.99779802561 0.0037081099581
          0.031475100666 -0.90025901794 -0.001614190056 0.063425198197 -0.99782198668 -0.0033697700128
          -0.083069197834 -0.86288797855 0.0048165097833 -0.16631799936 -0.92260497808 0.0094258096069
          0.031182000414 -0.7060379982 -0.0016223499551 0.16413399577 -0.68253499269 -0.0091144097969
          0.10188300163 -0.80269801617 -0.005593619775 0.06233920157 -0.60938102007 -0.0033860399853
          -0.00022477800667 -0.80296999216 0.00015956499556 -0.082594998181 -0.74285197258 0.0048114899546
          0.20399099588 -0.80193001032 -0.011287899688 -0.062801502645 -0.60935401917 0.0036918499973
          -0.16456100345 -0.68253201246 0.009415759705 -0.20444199443 -0.80194801092 0.011616599746
          0.16584600508 -0.92260497808 -0.009104359895 -0.064173996449 -0.96754997969 0.0075617800467
          0.031614601612 -0.86956000328 -0.0035442600492 0.063725300133 -0.96757602692 -0.0072407801636
          -0.083453796804 -0.83200997114 0.0098573798314 -0.16710199416 -0.8919749856 0.019534999505
          0.031305700541 -0.67448198795 -0.0035443298984 0.16480800509 -0.65084701777 -0.019218599424
          0.10232599825 -0.7715460062 -0.011827000417 0.062580503523 -0.57742100954 -0.0072408798151
          -0.00023229399812 -0.77183300257 0.00015983299818 -0.082953803241 -0.71144497395 0.00985732954
          0.20488399267 -0.77073699236 -0.023789199069 -0.06305859983 -0.57739400864 0.0075616701506
          -0.16524900496 -0.65084499121 0.019534999505 -0.20534999669 -0.77075600624 0.024112900719
          0.16661299765 -0.8919749856 -0.019218500704 -0.064428597689 -0.91437500715 0.011535800062
          0.031751699746 -0.81598597765 -0.0055344398133 0.063994698226 -0.91440099478 -0.011231400073
          -0.083784498274 -0.77828198671 0.015056099743 -0.1677750051 -0.83848798275 0.029958499596
          0.03143959865 -0.62011998892 -0.0055267699063 0.16547800601 -0.59638500214 -0.029637299478
          0.10274799913 -0.7175719738 -0.01825530082 0.062838301063 -0.52266901731 -0.011215999722
          -0.0002249340032 -0.71786201 0.00016007899831 -0.083279401064 -0.65723001957 0.015060800128
          0.2057210058 -0.71675598621 -0.036678701639 -0.063302002847 -0.52264100313 0.011551200412
          -0.16590300202 -0.5963820219 0.029967999086 -0.20617200434 -0.7167750001 0.036997500807
          0.16730000079 -0.83848798275 -0.029646800831 -0.064625799656 -0.83805602789 0.015472900122
          0.031886000186 -0.73931902647 -0.0075060701929 0.064234398305 -0.83808201551 -0.015184099786
          -0.084062799811 -0.70148599148 0.020207000896 -0.16834099591 -0.76192301512 0.040283899754
          0.031582601368 -0.54273098707 -0.0074911401607 0.16613799334 -0.51892900467 -0.039958398789
          0.10314899683 -0.64055800438 -0.024624399841 0.063110202551 -0.4449070096 -0.015154100023
          -0.00020345600205 -0.64083999395 0.00016030400002 -0.083571702242 -0.5799869895 0.020216200501
          0.20650100708 -0.63976401091 -0.049446698278 -0.063530601561 -0.4448800087 0.015502800234
          -0.16652199626 -0.51892697811 0.040302500129 -0.20690900087 -0.63978302479 0.049761198461
          0.16790999472 -0.7619240284 -0.039976898581 -0.064768701792 -0.73925101757 0.019229600206
          0.032017100602 -0.64021497965 -0.0093874502927 0.064445398748 -0.73927497864 -0.018954999745
          -0.084290497005 -0.60227501392 0.025122499093 -0.16880400479 -0.66293501854 0.050135601312
          0.031732898206 -0.44297400117 -0.009365869686 0.16678500175 -0.41913300753 -0.049806199968
          0.10352700204 -0.54115700722 -0.03070239909 0.063392698765 -0.34479299188 -0.018911700696
          -0.00016889300605 -0.54142099619 0.00016050699924 -0.083830602467 -0.48037299514 0.025135800242
          0.20722199976 -0.54041397572 -0.06162859872 -0.06374309957 -0.34476798773 0.019272800535
          -0.16710099578 -0.41913101077 0.050162300467 -0.20756100118 -0.54043102264 0.061939299107
          0.16844399273 -0.66293501854 -0.049832999706 -0.064861699939 -0.61939799786 0.022681299597
          0.032144401222 -0.52011102438 -0.011116200127 0.064629599452 -0.61941897869 -0.022419199347
          -0.084470197558 -0.48208600283 0.029639499262 -0.16917100549 -0.54295498133 0.059186398983
          0.031888399273 -0.32228499651 -0.011088700034 0.16741099954 -0.29842999578 -0.05885399878
          0.10388100147 -0.42080399394 -0.036287598312 0.063681401312 -0.22376699746 -0.022364100441
          -0.00012252200395 -0.42104101181 0.00016068900004 -0.084055803716 -0.35982200503 0.029656499624
          0.20788399875 -0.42013400793 -0.072820097208 -0.063937798142 -0.22374500334 0.022736299783
          -0.16763600707 -0.29842799902 0.05922050029 -0.20813000202 -0.42015001178 0.073127903044
          0.16890600324 -0.54295599461 -0.058887999505 -0.064909502864 -0.48059499264 0.025726299733
          0.032267499715 -0.38110101223 -0.012641600333 0.064789101481 -0.48061299324 -0.02547490038
          -0.084604896605 -0.34301099181 0.033625401556 -0.16944800317 -0.40407600999 0.067170396447
          0.032046500593 -0.18275800347 -0.012609000318 0.16800999641 -0.15891100466 -0.066835701466
          0.10420899838 -0.28158900142 -0.041216101497 0.06397099793 -0.083927996457 -0.025409599766
          -6.5825501224e-05 -0.28179401159 0.00016085000243 -0.084247298539 -0.22042800486 0.033645499498
          0.20848399401 -0.28101199865 -0.082692496479 -0.064112499356 -0.083908498287 0.025791600347
          -0.16812500358 -0.15891000628 0.067210800946 -0.20861600339 -0.28102499247 0.082998000085
          0.16929900646 -0.40407600999 -0.066876001656 -0.064918100834 -0.32545301318 0.02829080075
          0.032385800034 -0.22579300404 -0.013926699758 0.064926400781 -0.32546800375 -0.028047900647
          -0.08469799906 -0.18765500188 0.036983400583 -0.16964499652 -0.2488989979 0.073893502355
          0.032204598188 -0.027001800016 -0.013889900409 0.16857300699 -0.0031807899941 -0.073557302356
          0.10451000184 -0.12611800432 -0.045368101448 0.064255602658 0.072113603354 -0.027974199504
          -4.3652698878e-07 -0.12628699839 0.00016098900232 -0.084404699504 -0.064795002341 0.03700619936
          0.20902100205 -0.12564499676 -0.091005600989 -0.064264498651 0.072129502892 0.028364399448
          -0.16855999827 -0.0031793199014 0.073939099908 -0.20902200043 -0.12565599382 0.09131000191
          0.16963000596 -0.24889999628 -0.073602803051 -0.064893700182 -0.15692600608 0.030331699178
          0.03249900043 -0.057137299329 -0.01494999975 0.065044596791 -0.15693800151 -0.030095199123
          -0.084753297269 -0.018966499716 0.039657600224 -0.16977000237 -0.08037109673 0.079243302345
          0.032359499484 0.14203299582 -0.014909899794 0.16909000278 0.16581700742 -0.078906603158
          0.10478200018 0.042662698776 -0.048674598336 0.064528599381 0.24140299857 -0.030014999211
          7.1933696745e-05 0.042533099651 0.00016110700381 -0.084527499974 0.10412800312 0.039682399482
          0.20949199796 0.043026600033 -0.097620502114 -0.064390897751 0.241414994 0.03041180037
          -0.1689350009 0.1658180058 0.079292796552 -0.20934900641 0.043018098921 0.097924798727
          0.16990299523 -0.080371402204 -0.078956097364 -0.064842998981 0.021878300235 0.031840398908
          0.032606601715 0.1217629984 -0.015707299113 0.065147101879 0.021870100871 -0.031608201563
          -0.084774598479 0.15995399654 0.041636899114 -0.16983400285 0.098411001265 0.083196997643
          0.032508101314 0.32124400139 -0.015664899722 0.16955199838 0.34498301148 -0.082860901952
          0.10502299666 0.22165499628 -0.051121801138 0.064783200622 0.4208329916 -0.031523201615
          0.00014957399981 0.22156299651 0.00016120300279 -0.084615200758 0.28323999047 0.04166309908
          0.20989699662 0.22191099823 -0.10250899941 -0.064488403499 0.42084100842 0.031925298274
          -0.16924500465 0.34498399496 0.083249598742 -0.20959800482 0.22190499306 0.1028150022
          0.17012499273 0.098410703242 -0.082913398743 -0.064772896469 0.20790599287 0.032845098525
          0.032708499581 0.30785599351 -0.016212899238 0.065237700939 0.20790100098 -0.032615199685
          -0.084766000509 0.34605801105 0.042958300561 -0.16984599829 0.28440201283 0.085828602314
          0.032647199929 0.50757902861 -0.016168899834 0.16994799674 0.53127300739 -0.085494101048
          0.10523100197 0.40781199932 -0.052755501121 0.065012201667 0.60734701157 -0.032527100295
          0.00023086099827 0.40775498748 0.00016127800336 -0.084666900337 0.46949398518 0.042985498905
          0.21023200452 0.40797099471 -0.10576300323 -0.06455309689 0.60735201836 0.032933201641
          -0.16948099434 0.53127402067 0.085882999003 -0.20976999402 0.4079670012 0.10607100278
          0.170303002 0.28440201283 -0.085548497736 -0.064690597355 0.39837101102 0.033412501216
          0.032804798335 0.49836400151 -0.016500199214 0.065320700407 0.39836901426 -0.033183198422
          -0.084731400013 0.53657001257 0.043709199876 -0.16981799901 0.47482898831 0.087312996387
          0.03277400136 0.69826000929 -0.016455300152 0.17026700079 0.72191399336 -0.086981199682
          0.10540600121 0.59835898876 -0.053683999926 0.06520819664 0.79816097021 -0.033093299717
          0.00031435399433 0.59833097458 0.00016133200552 -0.084681503475 0.66011297703 0.043737001717
          0.21049700677 0.59843802452 -0.10759799927 -0.064580798149 0.79816299677 0.033502399921
          -0.16963599622 0.72191399336 0.08736860007 -0.20986899734 0.59843599796 0.10790999979
          0.17044499516 0.47482898831 -0.087036803365 -0.064602397382 0.59098899364 0.033649101853
          0.032895900309 0.69100397825 -0.016623100266 0.065400600433 0.59098798037 -0.033418700099
          -0.084674201906 0.72921001911 0.044030401856 -0.16976000369 0.66741502285 0.087928600609
          0.032885700464 0.89100301266 -0.016577800736 0.17049999535 0.91462802887 -0.087601199746
          0.10554499924 0.79101902246 -0.054081000388 0.065364800394 0.99098700285 -0.033328101039
          0.00039889500476 0.79101002216 0.00016136400518 -0.084657803178 0.85281598568 0.044058401138
          0.21069100499 0.79104298353 -0.10835999995 -0.064567297697 0.99098801613 0.033739700913
          -0.16970199347 0.91462802887 0.087984599173 -0.20989300311 0.79104298353 0.10867600143
          0.17055700719 0.66741502285 -0.08765719831 -0.064515702426 0.7842040062 0.03370270133
          0.032982699573 0.88422501087 -0.016653100029 0.06548319757 0.7842040062 -0.033471401781
          -0.084598302841 0.92243099213 0.04410880059 -0.16968299448 0.86061799526 0.088066197932
          0.032979700714 1.0842599869 -0.016607699916 0.17063599825 1.1078699827 -0.087741702795
          0.10564800352 0.98424702883 -0.054177999496 0.065474301577 1.1842700243 -0.033380601555
          0.00048370999866 0.98424398899 0.00016137500643 -0.084593400359 1.0460599661 0.044136900455
          0.21081200242 0.98425102234 -0.10852999985 -0.064506903291 1.1842700243 0.033793501556
          -0.16966800392 1.1078699827 0.088122300804 -0.20984500647 0.98425102234 0.10885000229
          0.17065000534 0.86061799526 -0.087797798216 -0.060547400266 -0.60448402166 -0.0064102998003
          0.030613800511 -0.53807002306 0.0032902699895 0.061170201749 -0.60448497534 0.0067992499098
          -0.079003103077 -0.51276099682 -0.0078849000856 -0.15827299654 -0.55402499437 -0.016556700692
          0.030537599698 -0.40429601073 0.0029440200888 0.15898600221 -0.38904601336 0.015131000429
          0.098191097379 -0.47156500816 0.0096963802353 0.060970000923 -0.33711600304 0.0056556998752
          0.00027668100665 -0.47134798765 0.0001162999979 -0.078992299736 -0.43008899689 -0.0074837398715
          0.19618099928 -0.47210299969 0.019588699564 -0.060480900109 -0.33711200953 -0.0055206702091
          -0.15853899717 -0.38905701041 -0.014971800148 -0.1956589967 -0.47214001417 -0.019320100546
          0.15884800255 -0.55404102802 0.01679199934 0.030486600474 -0.11242999882 0.00090274802642
          0.15843200684 -0.10857799649 0.004771260079 0.060759898275 -0.094771198928 0.0017837999621
          0.00028546599788 -0.12991599739 -4.9749901336e-06 -0.078667201102 -0.11922299862 -0.0022719500121
          -0.060251101851 -0.094753101468 -0.0017346099485 -0.15785799921 -0.10860300064 -0.0046734497882
          -0.060618501157 0.83116400242 0.0075226798654 0.030577100813 0.7374740243 -0.0040336297825
          0.060913499445 0.83114397526 -0.0079469596967 -0.061392001808 0.87998598814 0.0078606400639
          0.030761100352 0.78547501564 -0.0041875299066 0.061495900154 0.87999099493 -0.0082931201905
          -0.079586900771 0.70167702436 0.0098956404254 -0.080333299935 0.74937498569 0.010307200253
          -0.15929600596 0.75971102715 0.020057499409 -0.16072499752 0.80775702 0.020978499204
          0.030678899959 0.54973298311 -0.0039176298305 0.16010299325 0.52776801586 -0.020155699924
          0.098819598556 0.64370602369 -0.012570300139 0.030737500638 0.5965179801 -0.0041459398344
          0.16071100533 0.5741789937 -0.021281499416 0.099382996559 0.69097697735 -0.013118400238
          0.06132009998 0.45581299067 -0.0077121797949 0.061405099928 0.50204998255 -0.0082076396793
          0.0001454220037 0.64364999533 -0.00015701599477 5.0891598221e-05 0.69098800421 -0.00015951300156
          -0.079740300775 0.58565700054 0.0098302299157 -0.080298103392 0.63259297609 0.010351199657
          0.19756600261 0.64387398958 -0.02516409941 0.19870099425 0.69094097614 -0.026320699602
          -0.061001099646 0.45581999421 0.0074979001656 -0.061307199299 0.50204801559 0.0079776300117
          -0.15981799364 0.52778202295 0.019953100011 -0.16061000526 0.57417500019 0.02105389908
          -0.19726599753 0.64386099577 0.024810299277 -0.19860300422 0.6909430027 0.025965200737
          0.15959000587 0.75971698761 -0.020436899737 0.16082699597 0.80775702 -0.021323399618
          -0.06198579818 0.92738497257 0.0071335402317 0.03090129979 0.8321750164 -0.003822280094
          0.061919301748 0.92739200592 -0.0075450600125 -0.080984897912 0.79576998949 0.009363129735
          -0.16207200289 0.85442602634 0.019039999694 0.030806999654 0.64203602076 -0.0037798499689
          0.16143199801 0.61940199137 -0.019336599857 0.099928699434 0.73695600033 -0.011945799924
          0.061568200588 0.54711902142 -0.0074622198008 -3.5994398786e-05 0.73704600334 -0.00015906599583
          -0.08083140105 0.67825597525 0.0093882698566 0.19989700615 0.73669999838 -0.023926200345
          -0.061642698944 0.54711002111 0.007217249833 -0.1614959985 0.61940097809 0.019095899537
          -0.19996899366 0.73670601845 0.023576200008 0.16199100018 0.85442399979 -0.019385099411
          -0.062551401556 0.96744602919 0.0054476899095 0.031049700454 0.87157201767 -0.0029755800497
          0.062347900122 0.96745997667 -0.0058422498405 -0.08159019798 0.83488601446 0.0071584600955
          -0.16330200434 0.89382100105 0.014609900303 0.030883900821 0.68030798435 -0.002942079911
          0.16210800409 0.65740501881 -0.014905800112 0.10044699907 0.77568501234 -0.009217900224
          0.061732798815 0.58493000269 -0.0057743899524 -0.0001063200034 0.77583897114 -0.00015965900093
          -0.081321999431 0.71667897701 0.0071791498922 0.20099900663 0.7752519846 -0.018440399319
          -0.061952199787 0.58491498232 0.0055142701603 -0.16230799258 0.65740299225 0.014649399556
          -0.2012130022 0.77526199818 0.018094399944 0.16307599843 0.89381998777 -0.014949100092
          -0.063048899174 0.99510300159 0.0029663799796 0.031193699688 0.89862000942 -0.0017315800069
          0.062738001347 0.99512201548 -0.0033431700431 -0.082139201462 0.86167901754 0.0039138197899
          -0.16442300379 0.9208829999 0.0080919703469 0.030972700566 0.70629900694 -0.0017063199775
          0.16279000044 0.68316197395 -0.0083953002468 0.10094799846 0.80211901665 -0.0052050300874
          0.06191809848 0.61048102379 -0.0032929100562 -0.00016133200552 0.80232399702 -0.00015993000125
          -0.08178140223 0.74281799793 0.0039293598384 0.20205700397 0.80153900385 -0.010379300453
          -0.062250100076 0.61046099663 0.0030168900266 -0.16309599578 0.683160007 0.0081235999241
          -0.20238000154 0.80155199766 0.01003849972 0.164083004 0.92088198662 -0.0084260497242
          -0.063487097621 1.0062600374 -0.00014289599494 0.031336899847 0.90921401978 -0.00017353599833
          0.06309980154 1.0062799454 -0.0002158730058 -0.082634299994 0.87204498053 -0.00015260900545
          -0.16543200612 0.93150997162 -6.8822497269e-05 0.031073000282 0.71590298414 -0.00015678700584
          0.16346900165 0.69256597757 -0.00023929099552 0.1014290005 0.81215298176 -0.00017612299416
          0.062121700495 0.61965602636 -0.00018231700233 -0.00020057300571 0.81239801645 -0.00016025699733
          -0.082207396626 0.75257098675 -0.00014220499725 0.20305800438 0.81146198511 -0.00028608299908
          -0.062534198165 0.61963200569 -0.00010933400335 -0.16384999454 0.69256299734 -4.8154499382e-05
          -0.20346100628 0.81147801876 -4.9695601774e-05 0.16501000524 0.93150997162 -0.00026007599081
          -0.063863098621 0.99777597189 -0.0037094599102 0.031477998942 0.90023100376 0.0016131299781
          0.063430197537 0.99780100584 0.0033686100505 -0.083074197173 0.86285698414 -0.004817689769
          -0.16632899642 0.92257797718 -0.0094272103161 0.031184999272 0.70599597692 0.001621549949
          0.16414600611 0.68249201775 0.009113850072 0.10189100355 0.80266201496 0.0055928002112
          0.062344301492 0.60933202505 0.0033854199573 -0.00022403900221 0.80293399096 -0.00016054300067
          -0.08259999752 0.74281299114 -0.0048125102185 0.20400600135 0.80189502239 0.011287299916
          -0.062805101275 0.60930597782 -0.0036926600151 -0.1645720005 0.68248897791 -0.0094168195501
          -0.20445500314 0.80191302299 -0.011617899872 0.16585800052 0.92257797718 0.0091034602374
          -0.06417799741 0.96752899885 -0.0075627500191 0.031617101282 0.8695319891 0.003543100087
          0.06373000145 0.96755498648 0.0072394497693 -0.083459198475 0.83197897673 -0.0098581798375
          -0.16711300611 0.89194899797 -0.019535699859 0.03130820021 0.67444097996 0.0035433399025
          0.16482000053 0.65080398321 0.019217299297 0.10233300179 0.77151101828 0.011825700291
          0.062585197389 0.5773730278 0.0072398898192 -0.00023196199618 0.77179801464 -0.00016081299691
          -0.082959197462 0.71140599251 -0.00985801965 0.20489799976 0.77070200443 0.02378760092
          -0.063062697649 0.5773460269 -0.0075623001903 -0.16526000202 0.65080100298 -0.019535399973
          -0.2053630054 0.77072101831 -0.024113200605 0.16662499309 0.89194899797 0.019216999412
          -0.064432896674 0.91435497999 -0.011536399834 0.03175399825 0.81595999002 0.0055331899785
          0.063999198377 0.9143819809 0.011229899712 -0.083790197968 0.77825301886 -0.015056500211
          -0.16778600216 0.8384630084 -0.029958300292 0.031441900879 0.6200799942 0.0055256001651
          0.16548900306 0.59634399414 0.029635200277 0.10275500268 0.71753901243 0.018253600225
          0.062842898071 0.52262198925 0.011214699596 -0.00022483199427 0.71782898903 -0.00016106000112
          -0.083285100758 0.65719199181 -0.015061199665 0.20573499799 0.71672201157 0.036676198244
          -0.063306301832 0.52259498835 -0.01155159995 -0.16591499746 0.59634101391 -0.029967799783
          -0.20618599653 0.71674197912 -0.036997098476 0.16731199622 0.83846402168 0.029644599184
          -0.064630098641 0.83803999424 -0.015473100357 0.03188829869 0.73929601908 0.0075047300197
          0.064238801599 0.83806502819 0.015182400122 -0.084068499506 0.70146000385 -0.020207000896
          -0.16835199296 0.76190197468 -0.040283098817 0.03158479929 0.54269498587 0.0074897999875
          0.16615000367 0.51889097691 0.039955601096 0.10315600038 0.64052897692 0.02462230064
          0.063114702702 0.44486299157 0.01515240036 -0.00020342700009 0.64081001282 -0.00016128600691
          -0.083577498794 0.57995402813 -0.020216299221 0.20651499927 0.63973498344 0.049443401396
          -0.063534997404 0.44483700395 -0.01550310012 -0.16653299332 0.51888799667 -0.040301598608
          -0.20692299306 0.63975298405 -0.049759898335 0.16792100668 0.76190298796 0.039974100888
          -0.064773000777 0.73923897743 -0.019229600206 0.032019399107 0.64019697905 0.0093860300258
          0.064449898899 0.7392629981 0.018953099847 -0.084296196699 0.60225498676 -0.025122199208
          -0.16881500185 0.66291797161 -0.050133999437 0.031735200435 0.44294300675 0.0093643795699
          0.16679599881 0.41909998655 0.049802698195 0.10353399813 0.54113197327 0.03069989942
          0.063397303224 0.34475499392 0.018909700215 -0.00016879799659 0.54139602184 -0.00016149099974
          -0.083836302161 0.48034399748 -0.025135599077 0.20723700523 0.54038900137 0.061624500901
          -0.063747502863 0.34472998977 -0.019272899255 -0.16711199284 0.41909700632 -0.050160799176
          -0.20757499337 0.54040598869 -0.061937201768 0.16845600307 0.66291898489 0.049829501659
          -0.064865797758 0.61939197779 -0.022680899128 0.032146900892 0.52009898424 0.011114699766
          0.064634300768 0.6194139719 0.022417200729 -0.084475703537 0.48207101226 -0.02963889949
          -0.16918200254 0.54294502735 -0.059184201062 0.031890898943 0.32225900888 0.011087100022
          0.16742299497 0.29840299487 0.058849800378 0.10388799757 0.42078500986 0.036284800619
          0.063686102629 0.22373500466 0.022361800075 -0.00012224300008 0.42102301121 -0.00016167400463
          -0.084061399102 0.35979899764 -0.029656000435 0.20789800584 0.42011499405 0.072815403342
          -0.06394200027 0.22371199727 -0.022736299783 -0.16764800251 0.29840099812 -0.05921849981
          -0.20814399421 0.4201309979 -0.073125101626 0.16891799867 0.54294502735 0.058883998543
          -0.064913399518 0.48059698939 -0.025725800544 0.032270301133 0.38109600544 0.012640000321
          0.064794100821 0.48061600327 0.025472700596 -0.08461009711 0.34300300479 -0.033624600619
          -0.16945900023 0.40407299995 -0.067167699337 0.032049298286 0.18274000287 0.012607299723
          0.16802200675 0.1588910073 0.066831000149 0.10421700031 0.28157800436 0.041212901473
          0.063975997269 0.083902798593 0.025407100096 -6.5262298449e-05 0.28178301454 -0.00016183599655
          -0.084252603352 0.22041200101 -0.033644799143 0.20849899948 0.28099998832 0.082687102258
          -0.064116403461 0.083883397281 -0.025791399181 -0.16813600063 0.15888999403 -0.067208297551
          -0.20862999558 0.28101399541 -0.082994602621 0.16931200027 0.40407299995 0.066871598363
          -0.064921602607 0.32546401024 -0.028289999813 0.032389000058 0.22579699755 0.013925000094
          0.064931802452 0.32547900081 0.02804560028 -0.084702901542 0.18765600026 -0.03698239848
          -0.16965599358 0.24890500307 -0.073890402913 0.032207701355 0.026991799474 0.013887999579
          0.16858500242 0.0031691899057 0.073552303016 0.10451799631 0.12611499429 0.045364700258
          0.064260996878 -0.07213050127 0.027971500531 4.9235200095e-07 0.12628400326 -0.00016197600053