<VTKFile type="UnstructuredGrid" version="1.0" byte_order="LittleEndian" header_type="UInt64">
  <UnstructuredGrid>
    <Piece NumberOfPoints="791" NumberOfCells="973">
      <PointData>
        <DataArray type="Float32" Name="displacement" NumberOfComponents="3" format="ascii" RangeMin="0" RangeMax="1.2692996838">
          -0.0045713800937 0.00075845402898 0.0041448301636 -0.0029408999253 0.0001586839935 0.0044066901319
          -0.0020527800079 0.00037053899723 0.0039872899652 2.398720062e-05 0.00098685594276 0.0042366799898
          0.0046289297752 0.00076709000859 0.004133679904 0.0021082300227 0.00038756299182 0.0039793299511
          0.0029831898864 0.00014824900427 0.0043906201608 -0.0045851799659 -0.00019263800641 0.003986380063
          -0.0045918198302 -0.00080825801706 0.0039686500095 -0.0018745199777 -0.00083652400644 0.0037843100727
          2.1453299269e-05 -0.00037095000152 0.0042825099081 0.004618819803 -0.00081479799701 0.0039951098152
          0.0046316199005 -0.00018727900169 0.0039781900123 0.0019186900463 -0.00083760701818 0.0037873100955
          -0.0048229200765 0.0014973200159 0.003711909987 -0.0018377200468 0.001391400001 0.0038733601104
          0.0048950300552 0.0015167200472 0.0037002200261 0.0018970899982 0.0014106399613 0.0038873599842
          9.5493000117e-05 0.00076629099203 0.0034457000438 2.4809600291e-05 -0.00091397797223 0.0031067200471
          -5.1069200708e-05 0.00081260799197 0.0035060499795 -0.00011084500147 0.0010192700429 0.0023585199378
          0.00013791299716 0.0010543699609 0.0023933800403 0.00035539298551 -0.00049210601719 0.0024131298997
          3.1495899748e-05 0.0015029900242 0.0033701800276 -0.00028673998895 -0.00055967998924 0.0024379000533
          2.2415000785e-05 0.00032586499583 0.0044753900729 -0.23127399385 0.00072593498044 0.1480049938
          -0.23063899577 0.00011708900274 0.11424800009 -0.23135499656 -0.00016208700254 0.14812900126
          -0.112970002 0.0010461199563 0.13602699339 -0.11281599849 0.00017999099509 0.10801000148
          -0.11300399899 -0.00024871001369 0.1360989958 -0.2303069979 0.00043029899825 0.10147699714
          -0.11252699792 0.00061769102467 0.09736610204 -0.23030999303 0.00098914199043 0.12239100039
          -0.11192300171 0.0014919900568 0.11451099813 -0.23038600385 0.00026274801348 0.047540001571
          -0.23008799553 0.00080800999422 0.039461299777 -0.23016999662 0.00017329500406 0.080929398537
          -0.11331299692 0.00047158700181 0.053665399551 -0.11308199912 0.0014156900579 0.047095898539
          -0.11257000268 0.00034897698788 0.08046489954 -0.23079000413 0.00053598801605 0.013647399843
          -0.11464600265 0.00099539104849 0.027005700395 -0.23030099273 0.00019454299763 0.08089389652
          -0.11282599717 0.0003103009949 0.08053150028 -0.23014000058 -1.217459976e-05 0.060257300735
          -0.11285000294 -6.0462498368e-05 0.063750401139 -0.22975899279 0.00015824199363 0.080982603133
          -0.11180999875 0.00027228399995 0.080406598747 -0.23072899878 -0.00032493600156 0.013694499619
          -0.11451300234 -0.00051824498223 0.02700259909 -0.22991600633 -0.00055204000091 0.039311401546
          -0.11289700121 -0.00094805698609 0.046973701566 -0.22958800197 0.00023423100356 0.08084949851
          -0.11165700108 0.00032637699042 0.080263398588 -0.23047199845 -0.0004672310024 0.12243799865
          -0.11211899668 -0.00072916300269 0.11459700018 -0.3651239872 0.00031806400511 0.15424500406
          -0.3650380075 8.9939101599e-05 0.11765699834 -0.36518499255 4.0062001062e-05 0.15434199572
          -0.36491599679 0.00019560899818 0.10376100242 -0.36484000087 0.00039285400999 0.12641300261
          -0.36500701308 5.8791298216e-05 0.04503500089 -0.36499500275 0.00014993200602 0.036290299147
          -0.36496001482 5.2166400565e-05 0.081375099719 -0.36514601111 8.1276200945e-05 0.0083136996254
          -0.36496001482 8.6017702415e-05 0.081342503428 -0.36489900947 3.3719999919e-05 0.058876600116
          -0.36488199234 1.5959099983e-05 0.081403002143 -0.36507800221 -9.5493400295e-05 0.0083435904235
          -0.36483100057 -9.8895397969e-05 0.036153800786 -0.36468800902 0.00015547100338 0.081289298832
          -0.36500498652 -9.8663702374e-05 0.12646900117 -0.50378799438 -7.6589902164e-05 0.15386000276
          -0.50401002169 7.5502503023e-05 0.11762099713 -0.50384700298 0.00024729999132 0.15395699441
          -0.50403702259 -3.8188500184e-05 0.10386600345 -0.5040590167 -0.0002009299933 0.12629300356
          -0.50395601988 -0.00011798999913 0.045757401735 -0.50413799286 -0.00040304800496 0.0371096991
          -0.50416898727 -4.1798899474e-05 0.081705100834 -0.50372600555 -0.00030693400186 0.0094545101747
          -0.50404298306 -1.2348000382e-05 0.081680901349 -0.50400298834 6.0910599132e-05 0.059452198446
          -0.50441402197 -6.9087400334e-05 0.081729203463 -0.50366902351 8.4904997493e-05 0.0094842500985
          -0.50397902727 0.00026807200629 0.036987800151 -0.50420302153 4.6257900976e-05 0.081625200808
          -0.50421500206 0.00028746199678 0.12633800507 -0.63506698608 -0.00042135000695 0.14743000269
          -0.63560599089 6.2063496443e-05 0.11460000277 -0.63511800766 0.0004291080113 0.1475110054
          -0.63576799631 -0.00024156000291 0.10213399678 -0.63583701849 -0.00071870698594 0.12245199829
          -0.6355509758 -0.00027612000122 0.049454998225 -0.6359270215 -0.00090884801466 0.041619900614
          -0.63598501682 -0.00012542099284 0.082042597234 -0.63501501083 -0.00066088599851 0.016551800072
          -0.63574701548 -9.8391697975e-05 0.082020297647 -0.63573402166 8.9083303465e-05 0.061871699989
          -0.636515975 -0.00015284800611 0.082064397633 -0.63496100903 0.00025805999758 0.016579199582
          -0.63577198982 0.00061177700991 0.041514400393 -0.63628697395 -4.2740201025e-05 0.081975802779
          -0.63599002361 0.00062319397693 0.12249100208 -0.74840098619 -0.00071630999446 0.1357139945
          -0.74920397997 5.3390398534e-05 0.10891900212 -0.74844700098 0.00058852898655 0.1357820034
          -0.74948400259 -0.00041428901022 0.098747298121 -0.74960297346 -0.0011632499518 0.11533100158
          -0.74915599823 -0.00040960000479 0.055762801319 -0.7496920228 -0.0013389500091 0.049366500229
          -0.74977701902 -0.00019562400121 0.082353398204 -0.74835002422 -0.00096133997431 0.028909800574
          -0.74944299459 -0.00017002900131 0.082336001098 -0.74945402145 0.00011609699868 0.06589499861
          -0.75055402517 -0.00022064900259 0.082370400429 -0.74830299616 0.00040709099267 0.028933199123
          -0.74954098463 0.00090701202862 0.049280699342 -0.75031101704 -0.00011781600188 0.082299202681
          -0.74975097179 0.00091634597629 0.11536099762 -0.83468598127 -0.00095110200346 0.1195840016
          -0.83570301533 4.888750118e-05 0.10102500021 -0.83472800255 0.00071946298704 0.11963500082
          -0.83607798815 -0.00055112602422 0.093985497952 -0.8362339735 -0.0015186700039 0.10547400266
          -0.83565700054 -0.00051442999393 0.064242303371 -0.83632397652 -0.0016820000019 0.05980540067
          -0.83643102646 -0.00024889101041 0.082642503083 -0.83463799953 -0.0012005199678 0.045638699085
          -0.83601999283 -0.00022523000371 0.082629702985 -0.83604997396 0.00013949100685 0.071252599359
          -0.83740502596 -0.00027218001196 0.082654699683 -0.83459401131 0.00052918598522 0.04565770179
          -0.83617597818 0.0011462300317 0.059741601348 -0.83714997768 -0.00017656599812 0.082602798939
          -0.8363789916 0.0011548199691 0.10549400002 -0.88660097122 -0.0011194499675 0.10004699975
          -0.88777399063 4.8915098887e-05 0.091418802738 -0.88664001226 0.0008184670005 0.10007999837
          -0.88821899891 -0.0006482549943 0.088157899678 -0.88840198517 -0.0017755799927 0.093502998352
          -0.88773202896 -0.0005878250231 0.074390202761 -0.88849502802 -0.0019284900045 0.072314299643
          -0.88861602545 -0.000284328009 0.08290989697 -0.88655698299 -0.0013718199916 0.065731801093
          -0.88814800978 -0.00026247499045 0.082902401686 -0.888191998 0.00015922400053 0.077633701265
          -0.88973498344 -0.00030573899858 0.082916900516 -0.886515975 0.0006207380211 0.065745897591
          -0.88834798336 0.001322809956 0.072274401784 -0.88946998119 -0.00021740500233 0.082885801792
          -0.88854497671 0.001332779997 0.093513697386 -0.89881002903 -0.0012173099676 0.078198999166
          -0.90007901192 5.3604300774e-05 0.080647200346 -0.89884799719 0.00088348798454 0.07821380347
          -0.90056598186 -0.00070331100142 0.0816019997 -0.90076500177 -0.0019279200351 0.080095298588
          -0.90004098415 -0.00062791298842 0.085660599172 -0.90086197853 -0.0020725599024 0.086216799915
          -0.90099102259 -0.00030075400718 0.083155497909 -0.89877200127 -0.0014711399563 0.08809389919
          -0.90048897266 -0.00028072998975 0.083153299987 -0.9005420208 0.00017482500698 0.084700398147
          -0.90219700336 -0.00032033599564 0.083157196641 -0.89873200655 0.00067981897155 0.088102899492
          -0.90071600676 0.0014327700483 0.08620160073 -0.90192699432 -0.00023927600705 0.083147600293
          -0.90090799332 0.0014462199761 0.080095797777 -0.86808902025 -0.0012436100515 0.055174399167
          -0.86939197779 6.3188999775e-05 0.069276303053 -0.86812597513 0.00091423600679 0.05517090112
          -0.86989301443 -0.00071560801007 0.074667401612 -0.87009602785 -0.0019741998985 0.065952502191
          -0.86935698986 -0.00063410797156 0.097486898303 -0.8701980114 -0.0021126898937 0.10081099719
          -0.87032800913 -0.00029780500336 0.083379499614 -0.86805701256 -0.0014973500511 0.11158899963
          -0.86981397867 -0.00027960300213 0.083382800221 -0.86987102032 0.00018642100622 0.092102497816
          -0.87156498432 -0.00031557001057 0.083375699818 -0.86801797152 0.00070613302523 0.11159300059
          -0.87005102634 0.0014753900468 0.10082100332 -0.87129098177 -0.00024181499612 0.083387799561
          -0.87023997307 0.0014945099829 0.065942697227 -0.79334497452 -0.0012004399905 0.032096900046
          -0.79462301731 7.7896496805e-05 0.057866398245 -0.79338401556 0.00091229798272 0.032076001167
          -0.79511201382 -0.00068622798426 0.06770029664 -0.79530900717 -0.0019176900387 0.051768898964
          -0.79459100962 -0.0006071869866 0.10930900276 -0.79541701078 -0.0020520999096 0.11540400237
          -0.79554200172 -0.00027574499836 0.083582103252 -0.79332202673 -0.0014526200248 0.13509300351
          -0.79503697157 -0.00025936099701 0.083590500057 -0.79509198666 0.00019455200527 0.099493600428
          -0.79675298929 -0.00029171200003 0.083572998643 -0.79328101873 0.00070123502519 0.13509200513
          -0.79526901245 0.0014534000074 0.11543700099 -0.79647898674 -0.00022527900001 0.083605997264
          -0.79545402527 0.0014802899677 0.051748901606 -0.67555397749 -0.0010931099532 0.010022499599
          -0.67675197124 9.8007702036e-05 0.04694410041 -0.67559498549 0.00088122900343 0.0099858297035
          -0.67720401287 -0.00061806599842 0.061025798321 -0.67738497257 -0.0017665900523 0.038197200745
          -0.67672401667 -0.00054929597536 0.12060000002 -0.67750000954 -0.0018988100346 0.12934100628
          -0.67761301994 -0.00023550800688 0.083763197064 -0.6755399704 -0.001342350035 0.15754899383
          -0.67713797092 -0.00022093999723 0.083776496351 -0.67718702555 0.00020025100093 0.1065479964
          -0.67874902487 -0.00024969500373 0.083749197423 -0.67549699545 0.00066856102785 0.15754500031
          -0.67734897137 0.0013731500367 0.12939600646 -0.67847800255 -0.00019059999613 0.083801798522
          -0.67753297091 0.0014097200474 0.038167398423 -0.51757502556 -0.00093003798975 -0.010115600191
          -0.51864498854 0.00012387899915 0.036974698305 -0.51761901379 0.00082653702702 -0.010165500455
          -0.5190410018 -0.00051575701218 0.054931499064 -0.51919698715 -0.0015338700032 0.025814499706
          -0.51862102747 -0.00046388999908 0.13089600205 -0.51932001114 -0.0016654699575 0.14204800129
          -0.5194169879 -0.00017864200345 0.083923101425 -0.51757001877 -0.0011751600541 0.17802299559
          -0.51898801327 -0.00016588700237 0.083940796554 -0.51902598143 0.00020505300199 0.11297799647
          -0.52043300867 -0.0001910639985 0.083904698491 -0.51752501726 0.00061343901325 0.17801700532
          -0.51916599274 0.0012445000466 0.14212200046 -0.52016699314 -0.0001393220009 0.083974801004
          -0.519348979 0.0012923700269 0.025775300339 -0.32387000322 -0.00072252401151 -0.02755960077
          -0.32477900386 0.00015598999744 0.028335899115 -0.32391801476 0.00075560400728 -0.027619700879
          -0.32510200143 -0.00038550599129 0.049650598317 -0.32522600889 -0.001236889977 0.015089100227
          -0.32475799322 -0.00035560000106 0.13981699944 -0.32535800338 -0.0013690900523 0.15305399895
          -0.3254339993 -0.00010721899889 0.084061697125 -0.32387599349 -0.00096257997211 0.19575800002
          -0.32506400347 -9.6275696706e-05 0.084083199501 -0.32508900762 0.00021102100436 0.11855000257
          -0.32629799843 -0.00011788599659 0.084039598703 -0.32382699847 0.00054300797638 0.19574999809
          -0.32519900799 0.0010806999635 0.15314400196 -0.32603898644 -7.3510796938e-05 0.084124699235
          -0.32538300753 0.001141070039 0.015041300096 -0.10013200343 -0.00048433599295 -0.041775599122
          -0.10085699707 0.00019500199414 0.021293599159 -0.10018499941 0.00067755399505 -0.041842199862
          -0.101098001 -0.00023484100529 0.045347299427 -0.10118699819 -0.00089690100867 0.0063511999324
          -0.1008400023 -0.00023002199305 0.1470990032 -0.10132700205 -0.0010303900344 0.16203199327
          -0.10137999803 -2.3705499189e-05 0.08417929709 -0.10014999658 -0.00071868702071 0.21021799743
          -0.10107800364 -1.4572699911e-05 0.084203802049 -0.1010869965 0.00022075300512 0.12309899926
          -0.1020720005 -3.2621901482e-05 0.084154203534 -0.1000970006 0.00046609499259 0.21021099389
          -0.10116499662 0.00089804298477 0.16213299334 -0.10182099789 4.3760901463e-06 0.0842512995
          -0.10134799778 0.0009716579807 0.0062952898443 0.14717699587 -0.00023123000574 -0.052495699376
          0.14664299786 0.00024184999347 0.015980700031 0.14712099731 0.00060309097171 -0.052564799786
          0.1464869976 -7.2330003604e-05 0.04210370034 0.14643499255 -0.00053826597286 -0.00023346699891
          0.14665700495 -9.3480703072e-05 0.15260699391 0.14628599584 -0.00067320797825 0.16881400347
          0.14625699818 6.9210698712e-05 0.084275700152 0.14714799821 -0.00045958001283 0.22113500535
          0.14648999274 7.652810018e-05 0.08430249989 0.14649599791 0.00023742599296 0.12654399872
          0.1457439959 6.2043800426e-05 0.084248401225 0.14720599353 0.00039305898827 0.22113099694
          0.14645299315 0.00071553100133 0.16892200708 0.14598600566 9.1653600975e-05 0.0843546018
          0.14626899362 0.00080255401554 -0.00029687699862 0.41136500239 1.967460048e-05 -0.059751499444
          0.41101101041 0.00029775200528 0.012380699627 0.41130301356 0.00054424797418 -0.059818699956
          0.41093501449 9.2915703135e-05 0.039909601212 0.41091799736 -0.00018760700186 -0.0046842899173
          0.41102099419 4.7341600293e-05 0.15636000037 0.41075998545 -0.00032353299321 0.17342099547
          0.41075399518 0.0001687949989 0.08435100317 0.4113239944 -0.00020276200667 0.22854100168
          0.41092100739 0.0001742989989 0.084379300475 0.41094198823 0.00026471499586 0.12889400125
          0.41040998697 0.00016339399735 0.084322102368 0.41138601303 0.00033555101254 0.22854299843
          0.41093099117 0.00055433402304 0.17353199422 0.41064399481 0.0001856059971 0.084434397519
          0.41074699163 0.00065431301482 -0.0047549200244 0.68608802557 0.0002501939889 -0.063900999725
          0.68588602543 0.00036462501157 0.010314599611 0.68602401018 0.00051451200852 -0.06396239996
          0.6858779788 0.00025113098673 0.038654599339 0.68589001894 0.00012659899949 -0.0072225402109
          0.68589299917 0.00018544000341 0.15853500366 0.68572402 -9.2424397735e-06 0.17607299984
          0.68573701382 0.00027251298889 0.084404997528 0.68603801727 3.316099901e-05 0.23279300332
          0.68584901094 0.00027619700995 0.084434196353 0.68588298559 0.00030728901038 0.13026000559
          0.68553602695 0.00026886200067 0.084375202656 0.68610298634 0.00030667500687 0.232803002
          0.68589901924 0.0004379049933 0.17618200183 0.68576300144 0.00028373199166 0.084490999579
          0.68571597338 0.0005496829981 -0.0073002600111 0.96598798037 0.00044283398893 -0.06564360112
          0.96589100361 0.0004442690115 0.0094287395477 0.96592098475 0.000527531025 -0.065693199635
          0.96592897177 0.00039379199734 0.038119900972 0.96596199274 0.00037659800728 -0.0082789501175
          0.96589398384 0.00031482899794 0.15948599577 0.96578902006 0.00024308300635 0.17720299959
          0.96581602097 0.00037835899275 0.084437400103 0.96592801809 0.00023046099523 0.23458899558
          0.96588999033 0.0003800939885 0.084466800094 0.96593099833 0.00036922498839 0.13086099923
          0.96571302414 0.00037663898547 0.084407396615 0.96599501371 0.00031946899253 0.23461200297
          0.96596598625 0.00038925599074 0.17730599642 0.96593499184 0.00038361299084 0.084524601698
          0.96578502655 0.00051148602506 -0.0083654299378 1.2473499775 0.00057874101913 -0.066038697958
          1.2472900152 0.00054040702526 0.0092137204483 1.2472800016 0.00059987499844 -0.066079899669
          1.2473399639 0.00051132898079 0.037991598248 1.2473800182 0.00053233798826 -0.0085132597014
          1.2472900152 0.00042826900608 0.15972499549 1.2472100258 0.00040129601257 0.17746600509
          1.2472399473 0.00048393101315 0.084448896348 1.2472800016 0.00036840699613 0.23499900103
          1.2473000288 0.0004845240037 0.084478400648 1.2473499775 0.00045868600137 0.13101199269
          1.2471699715 0.00048330999562 0.084419101477 1.2473499775 0.00039105198812 0.23503099382
          1.2473900318 0.00043869198998 0.17756399512 1.2473900318 0.00048575500841 0.084536597133
          1.2472100258 0.00056577700889 -0.0086052501574 0.0008152499795 0.0014753600117 0.071237899363
          -0.01117059961 0.00018811000336 0.058285001665 0.00082742300583 -0.00048823500401 0.071312703192
          -0.015291200019 0.00075328897219 0.053119800985 -0.0074336901307 0.0019441699842 0.060602698475
          -0.034389801323 0.0006591869751 0.033025998622 -0.03691809997 0.0021076600533 0.029761599377
          -0.022437000647 0.0005214830162 0.045242801309 -0.047250300646 0.0014448399888 0.021169800311
          -0.022654199973 0.00036964999163 0.045428998768 -0.029651399702 -0.00022416599677 0.037543598562
          -0.021529300138 0.00046923599439 0.044685401022 -0.047016199678 -0.0008395150071 0.021075900644
          -0.036744900048 -0.0015301200328 0.029600199312 -0.021461499855 0.00023859899375 0.044571701437
          -0.0075868698768 -0.0010314399842 0.060664698482 -0.0046457401477 0.00074533099541 0.0035657600965
          -0.0061655398458 0.0028142998926 0.0032069000881 -0.010682499968 0.0018019500421 0.0050147301517
          -0.00033546698978 0.00030335300835 0.0037916998845 -0.0028667999431 -0.00062778097345 0.0033672899008
          -0.010428000242 -0.0012007500045 0.0047925701365 -0.0061744600534 -0.0023502300028 0.0030781899113
          0.11300999671 0.00095891102683 0.13600499928 0.11284200102 0.00010863000352 0.10798600316
          0.11302500218 -0.00033650599653 0.13607099652 0.23130600154 0.00065525999526 0.1479820013
          0.23065599799 6.1325103161e-05 0.11422300339 0.2313670069 -0.00023253999825 0.14810100198
          0.11257000268 0.00055100797908 0.097348101437 0.23034200072 0.00038047300768 0.10145899653
          0.11197900027 0.0014162600273 0.11449600011 0.23035800457 0.00092986697564 0.12237499654
          0.11333899945 0.00042901799316 0.053645800799 0.11308600008 0.0013772799866 0.047071501613
          0.11258500069 0.00028926201048 0.080436296761 0.23040300608 0.00023753399728 0.047519598156
          0.23008400202 0.0007862150087 0.039434999228 0.23017600179 0.00013333300012 0.080904096365
          0.11466699839 0.0009686939884 0.026987200603 0.23080199957 0.00052590697305 0.013627800159
          0.11285699904 0.00025159498909 0.080510400236 0.23032300174 0.00015442000586 0.080872900784
          0.11289300025 -0.00010929600103 0.063735097647 0.23017500341 -4.3140898924e-05 0.060241401196
          0.111808002 0.00021430199558 0.080376297235 0.22975000739 0.00011769199773 0.080951698124
          0.11455299705 -0.00054515502416 0.026989899576 0.2307599932 -0.00033506099135 0.013680700213
          0.11295399815 -0.00098674301989 0.046963598579 0.22996400297 -0.00057387800189 0.039300598204
          0.11172000319 0.00026619600249 0.080253399909 0.22964200377 0.00019432400586 0.080837599933
          0.11212400347 -0.00080472102854 0.11456300318 0.23046800494 -0.00052653701277 0.12240699679
          0.36514899135 0.00026263500331 0.15422299504 0.36504799128 4.9912898248e-05 0.11763300002
          0.36518898606 -1.5479699869e-05 0.15431499481 0.36494299769 0.00016141899687 0.10374200344
          0.36487999558 0.00034915399738 0.12639600039 0.36501601338 4.9561600463e-05 0.045014500618
          0.36498299241 0.00014438699873 0.036264799535 0.36495798826 2.7399299142e-05 0.081349797547
          0.3651509881 8.7530497694e-05 0.0082937302068 0.36497399211 6.1278798967e-05 0.081321299076
          0.36492699385 1.8523600374e-05 0.058860000223 0.36486399174 -8.7205398813e-06 0.081373900175
          0.36510300636 -8.9317501988e-05 0.0083287600428 0.36487200856 -0.00010459299665 0.036141701043
          0.36473500729 0.00013054300507 0.081276498735 0.36499300599 -0.00014241300232 0.12643900514
          0.50380599499 -0.00011865400302 0.15383799374 0.50401300192 4.8939200497e-05 0.11759699881
          0.50384497643 0.00020521599799 0.15392999351 0.5040590167 -5.880630124e-05 0.10384699702
          0.50409299135 -0.00023118400713 0.12627600133 0.50395900011 -0.00011336599709 0.045736700296
          0.50411999226 -0.00039477599785 0.037084698677 0.50415998697 -5.2786701417e-05 0.081680297852
          0.503723979 -0.00028666900471 0.0094343200326 0.50405102968 -2.3313399652e-05 0.081659696996
          0.50402402878 5.9539099311e-05 0.059434898198 0.50438898802 -8.0176796473e-05 0.081700697541
          0.50368702412 0.00010511699656 0.0094684604555 0.5040140152 0.00027625801158 0.036974299699
          0.50424301624 3.5205099266e-05 0.081611096859 0.50419700146 0.00025714299409 0.12630900741
          0.6350799799 -0.00045201298781 0.14740799367 0.63560301065 4.7096898925e-05 0.11457700282
          0.63511002064 0.00039840300451 0.14748600125 0.63578397036 -0.00025052801357 0.10211399943
          0.63586598635 -0.00073741801316 0.12243399769 0.63554900885 -0.00025956198806 0.049434099346
          0.63590300083 -0.00088857801165 0.04159539938 0.63597100973 -0.00012466699991 0.082018300891
          0.63500702381 -0.00062850600807 0.0165312998 0.63574999571 -9.7621399618e-05 0.081998996437
          0.63574999571 9.9567696452e-05 0.061853598803 0.63648498058 -0.00015215200256 0.082037098706
          0.63497400284 0.0002903759887 0.016562499106 0.63580197096 0.00063193798997 0.041499599814
          0.63632297516 -4.2087998736e-05 0.081960603595 0.63596498966 0.00060442800168 0.1224630028
          0.74840897322 -0.0007376249996 0.13569200039 0.74919599295 4.7924899263e-05 0.10889600217
          0.74843502045 0.00056717498228 0.13575699925 0.74949598312 -0.00041369101382 0.098727196455
          0.74962800741 -0.001172499964 0.1153120026 0.74914801121 -0.0003832099901 0.055741801858
          0.74966299534 -0.0013088199776 0.049342498183 0.74975800514 -0.00018520299636 0.082329697907
          0.74833798409 -0.00091896398226 0.028889099136 0.74944102764 -0.00015958599397 0.082314603031
          0.74946600199 0.00013635199866 0.065876297653 0.75051802397 -0.0002103010047 0.082344196737
          0.74831098318 0.00044940700172 0.028915399686 0.74956601858 0.00093703897437 0.04926450178
          0.75034201145 -0.0001074890024 0.082282602787 0.74972200394 0.00090703897877 0.11533399671
          0.83469098806 -0.00096523802495 0.11956200004 0.83569198847 5.0752900279e-05 0.10100200027
          0.8347120285 0.00070528598735 0.1196110025 0.83608597517 -0.00054313900182 0.093965001404
          0.83625602722 -0.0015206199605 0.10545399785 0.83564698696 -0.00048040598631 0.064221099019
          0.83629101515 -0.0016441999469 0.059781998396 0.83640801907 -0.000230990001 0.082619197667
          0.83462202549 -0.0011503599817 0.045617699623 0.83601397276 -0.00020730700635 0.08260820061
          0.83605802059 0.0001673210063 0.071233101189 0.83736598492 -0.00025435301359 0.082629702985
          0.8345990181 0.00057928799652 0.04563890025 0.8361979723 0.0011839299696 0.059724099934
          0.83717799187 -0.00015876299585 0.082584999502 0.83634597063 0.0011528099421 0.10546900332
          0.88660299778 -0.0011286600493 0.10002499819 0.88776099682 5.5849399359e-05 0.091396398842
          0.88662201166 0.00080922001507 0.10005699843 0.8882240057 -0.00063514598878 0.088137000799
          0.88842099905 -0.0017724999925 0.093482702971 0.88771897554 -0.00054844998522 0.074368901551
          0.88845902681 -0.0018853100482 0.072291597724 0.8885909915 -0.00026121799601 0.082887299359
          0.88653802872 -0.0013161699753 0.06571059674 0.88814002275 -0.0002393409959 0.082880802453
          0.88819801807 0.00019235200307 0.077613398433 0.88969302177 -0.00028270500479 0.082893103361
          0.88651800156 0.00067633501021 0.065726101398 0.88836801052 0.001365890028 0.072255402803
          0.88949602842 -0.00019439200696 0.082866601646 0.88850998878 0.0013358000433 0.093489699066
          0.89881199598 -0.0012238799827 0.078177198768 0.90006500483 6.3307001255e-05 0.080625198781
          0.89882802963 0.00087687798077 0.078191399574 0.90057098866 -0.00068738299888 0.081580601633
          0.90078300238 -0.0019220999675 0.080074198544 0.90002697706 -0.00058550899848 0.085639096797
          0.90082401037 -0.0020263199694 0.086194701493 0.90096402168 -0.00027474499075 0.083133496344
          0.89875197411 -0.0014123199508 0.088072501123 0.90047997236 -0.00025469699176 0.083131797612
          0.90054601431 0.00021093299438 0.084679402411 0.90215402842 -0.00029440299841 0.08313459903
          0.8987339735 0.00073857599637 0.088082097471 0.90073400736 0.0014789199922 0.086181096733
          0.90195202827 -0.00021336300415 0.083126999438 0.90087097883 0.0014519799734 0.080073103309
          0.86808902025 -0.001249819994 0.055152699351 0.86937600374 7.3373201303e-05 0.069254696369
          0.86810600758 0.00090798700694 0.055149398744 0.86989700794 -0.00069915299537 0.074645601213
          0.87011402845 -0.0019679300021 0.065930597484 0.86934202909 -0.00059098401107 0.09746529907
          0.87015998363 -0.0020657000132 0.10079000145 0.87030100822 -0.00027119400329 0.083357997239
          0.8680369854 -0.0014377000043 0.11156699806 0.86980497837 -0.0002529679914 0.08336109668
          0.86987501383 0.00022320500284 0.092080801725 0.87151998281 -0.00028903299244 0.083354398608
          0.86801898479 0.0007657299866 0.11157099903 0.87006998062 0.001522280043 0.10079900175
          0.87131601572 -0.00021529599326 0.083365902305 0.87020200491 0.0015007200418 0.06592129916
          0.79334700108 -0.0012084899936 0.032075300813 0.79460799694 8.6351697973e-05 0.057845201343
          0.7933639884 0.00090421002824 0.032055299729 0.79511702061 -0.00067145901266 0.067678101361
          0.79532802105 -0.001913169981 0.051746301353 0.79457700253 -0.00056557700736 0.10928700119
          0.79537898302 -0.0020065999124 0.11538299918 0.79551500082 -0.00025075298618 0.083561100066
          0.79330199957 -0.0013943699887 0.1350709945 0.79502797127 -0.00023434699688 0.083568796515
          0.79509699345 0.00022978500056 0.099471099675 0.79670900106 -0.00026679001166 0.083552800119
          0.79328298569 0.0007594259805 0.13506999612 0.79528701305 0.0014988200273 0.11541400105
          0.79650497437 -0.00020037200011 0.083582803607 0.79541701078 0.0014847599668 0.051728699356
          0.67555701733 -0.001105059986 0.010000900365 0.67673802376 0.00010266200115 0.046923201531
          0.67557698488 0.00086924200878 0.0099658397958 0.67721098661 -0.00060705898795 0.061003301293
          0.67740601301 -0.001765890047 0.038173999637 0.67671000957 -0.00051129300846 0.12057899684
          0.67746400833 -0.0018568900414 0.12932099402 0.67758798599 -0.00021421599376 0.083742700517
          0.67552101612 -0.001287620049 0.15752699971 0.6771299839 -0.00019962800434 0.08375480026
          0.67719298601 0.0002318439947 0.10652499646 0.67870599031 -0.00022846600041 0.083730101585
          0.67549997568 0.00072324101347 0.15752099454 0.67737001181 0.0014149900526 0.12937200069
          0.67850500345 -0.0001693850063 0.083777397871 0.6774970293 0.0014103699941 0.03814829886
          0.51757997274 -0.0009477600106 -0.010137200356 0.51863402128 0.00012286000128 0.036954201758
          0.51760202646 0.00080878700828 -0.010184899904 0.5190500021 -0.00051038898528 0.054908700287
          0.51921999454 -0.0015388600295 0.025790600106 0.51861000061 -0.00043139100308 0.13087399304
          0.51928597689 -0.0016290299827 0.14202800393 0.51939302683 -0.00016293399676 0.083903096616
          0.51755398512 -0.0011258500163 0.17800100148 0.5189819932 -0.00015016099496 0.083919003606
          0.51903402805 0.00023111500195 0.11295399815 0.52039200068 -0.00017540999397 0.083886496723
          0.51753002405 0.00066269998206 0.17799299955 0.51918798685 0.0012808700558 0.14209599793