<?xml version="1.0"?>
<!--Shaheen-->
<VTKFile type="UnstructuredGrid" version="0.1" byte_order="LittleEndian">
  <UnstructuredGrid>
    <Piece NumberOfPoints="791" NumberOfCells="973">
      <Points>
        <DataArray type="Float32" NumberOfComponents="3" format="ascii">
-0.190211 -0.0618034 -0.866203 -0.17591 0.0347644 -0.761951 -0.166717 -0.0910144 -0.722131 0 -0.0768927 -0.886453 0.190211 -0.0618034 -0.866203 0.166717 -0.0910144 -0.722131 0.17591 0.0347644 -0.761951 -0.190211 0.0618034 -0.866203 -0.181592 0.2 -0.786562 -0.117557 0.161803 -0.847614 0 0.0768927 -0.886453 0.181592 0.2 -0.786562 0.190211 0.0618034 -0.866203 0.117557 0.161803 -0.847614 -0.181592 -0.2 -0.786562 -0.117557 -0.161803 -0.847614 0.181592 -0.2 -0.786562 0.117557 -0.161803 -0.847614 -0.151842 0.1125 -0.6577 0 0.2 -0.792573 0.151842 0.1125 -0.6577 -0.151842 0.225 -0.6577 0.151842 0.225 -0.6577 0.151842 -0.225 -0.6577 0 -0.2 -0.792573 -0.151842 -0.225 -0.6577 0 -7.38343e-17 -0.9 0.888988 -0.0695288 0.4 0.781994 0.0347644 0.4 0.888988 0.0695288 0.4 0.888988 -0.0695288 2.2226e-15 0.781994 0.0347644 2.2357e-15 0.888988 0.0695288 2.2226e-15 0.741126 -0.0910144 0.4 0.741126 -0.0910144 2.24071e-15 0.807252 -0.182029 0.4 0.807252 -0.182029 2.23261e-15 0.568006 0.0347644 0.4 0.542748 0.182029 0.4 0.675 0.1125 0.4 0.568006 0.0347644 2.26191e-15 0.542748 0.182029 2.265e-15 0.675 0.1125 2.2488e-15 0.461012 0.0695288 0.4 0.461012 0.0695288 2.27501e-15 0.675 0 0.4 0.675 0 2.2488e-15 0.608874 -0.0910144 0.4 0.608874 -0.0910144 2.2569e-15 0.675 0.225 0.4 0.675 0.225 2.2488e-15 0.461012 -0.0695288 0.4 0.461012 -0.0695288 2.27501e-15 0.542748 -0.182029 0.4 0.542748 -0.182029 2.265e-15 0.675 -0.225 0.4 0.675 -0.225 2.2488e-15 0.807252 0.182029 0.4 0.807252 0.182029 2.23261e-15 0.888988 -0.0695288 0.8 0.781994 0.0347644 0.8 0.888988 0.0695288 0.8 0.741126 -0.0910144 0.8 0.807252 -0.182029 0.8 0.568006 0.0347644 0.8 0.542748 0.182029 0.8 0.675 0.1125 0.8 0.461012 0.0695288 0.8 0.675 0 0.8 0.608874 -0.0910144 0.8 0.675 0.225 0.8 0.461012 -0.0695288 0.8 0.542748 -0.182029 0.8 0.675 -0.225 0.8 0.807252 0.182029 0.8 0.888988 -0.0695288 1.2 0.781994 0.0347644 1.2 0.888988 0.0695288 1.2 0.741126 -0.0910144 1.2 0.807252 -0.182029 1.2 0.568006 0.0347644 1.2 0.542748 0.182029 1.2 0.675 0.1125 1.2 0.461012 0.0695288 1.2 0.675 0 1.2 0.608874 -0.0910144 1.2 0.675 0.225 1.2 0.461012 -0.0695288 1.2 0.542748 -0.182029 1.2 0.675 -0.225 1.2 0.807252 0.182029 1.2 0.888988 -0.0695288 1.6 0.781994 0.0347644 1.6 0.888988 0.0695288 1.6 0.741126 -0.0910144 1.6 0.807252 -0.182029 1.6 0.568006 0.0347644 1.6 0.542748 0.182029 1.6 0.675 0.1125 1.6 0.461012 0.0695288 1.6 0.675 0 1.6 0.608874 -0.0910144 1.6 0.675 0.225 1.6 0.461012 -0.0695288 1.6 0.542748 -0.182029 1.6 0.675 -0.225 1.6 0.807252 0.182029 1.6 0.888988 -0.0695288 2 0.781994 0.0347644 2 0.888988 0.0695288 2 0.741126 -0.0910144 2 0.807252 -0.182029 2 0.568006 0.0347644 2 0.542748 0.182029 2 0.675 0.1125 2 0.461012 0.0695288 2 0.675 0 2 0.608874 -0.0910144 2 0.675 0.225 2 0.461012 -0.0695288 2 0.542748 -0.182029 2 0.675 -0.225 2 0.807252 0.182029 2 0.888988 -0.0695288 2.4 0.781994 0.0347644 2.4 0.888988 0.0695288 2.4 0.741126 -0.0910144 2.4 0.807252 -0.182029 2.4 0.568006 0.0347644 2.4 0.542748 0.182029 2.4 0.675 0.1125 2.4 0.461012 0.0695288 2.4 0.675 0 2.4 0.608874 -0.0910144 2.4 0.675 0.225 2.4 0.461012 -0.0695288 2.4 0.542748 -0.182029 2.4 0.675 -0.225 2.4 0.807252 0.182029 2.4 0.888988 -0.0695288 2.8 0.781994 0.0347644 2.8 0.888988 0.0695288 2.8 0.741126 -0.0910144 2.8 0.807252 -0.182029 2.8 0.568006 0.0347644 2.8 0.542748 0.182029 2.8 0.675 0.1125 2.8 0.461012 0.0695288 2.8 0.675 0 2.8 0.608874 -0.0910144 2.8 0.675 0.225 2.8 0.461012 -0.0695288 2.8 0.542748 -0.182029 2.8 0.675 -0.225 2.8 0.807252 0.182029 2.8 0.888988 -0.0695288 3.2 0.781994 0.0347644 3.2 0.888988 0.0695288 3.2 0.741126 -0.0910144 3.2 0.807252 -0.182029 3.2 0.568006 0.0347644 3.2 0.542748 0.182029 3.2 0.675 0.1125 3.2 0.461012 0.0695288 3.2 0.675 0 3.2 0.608874 -0.0910144 3.2 0.675 0.225 3.2 0.461012 -0.0695288 3.2 0.542748 -0.182029 3.2 0.675 -0.225 3.2 0.807252 0.182029 3.2 0.888988 -0.0695288 3.6 0.781994 0.0347644 3.6 0.888988 0.0695288 3.6 0.741126 -0.0910144 3.6 0.807252 -0.182029 3.6 0.568006 0.0347644 3.6 0.542748 0.182029 3.6 0.675 0.1125 3.6 0.461012 0.0695288 3.6 0.675 0 3.6 0.608874 -0.0910144 3.6 0.675 0.225 3.6 0.461012 -0.0695288 3.6 0.542748 -0.182029 3.6 0.675 -0.225 3.6 0.807252 0.182029 3.6 0.888988 -0.0695288 4 0.781994 0.0347644 4 0.888988 0.0695288 4 0.741126 -0.0910144 4 0.807252 -0.182029 4 0.568006 0.0347644 4 0.542748 0.182029 4 0.675 0.1125 4 0.461012 0.0695288 4 0.675 0 4 0.608874 -0.0910144 4 0.675 0.225 4 0.461012 -0.0695288 4 0.542748 -0.182029 4 0.675 -0.225 4 0.807252 0.182029 4 0.888988 -0.0695288 4.4 0.781994 0.0347644 4.4 0.888988 0.0695288 4.4 0.741126 -0.0910144 4.4 0.807252 -0.182029 4.4 0.568006 0.0347644 4.4 0.542748 0.182029 4.4 0.675 0.1125 4.4 0.461012 0.0695288 4.4 0.675 0 4.4 0.608874 -0.0910144 4.4 0.675 0.225 4.4 0.461012 -0.0695288 4.4 0.542748 -0.182029 4.4 0.675 -0.225 4.4 0.807252 0.182029 4.4 0.888988 -0.0695288 4.8 0.781994 0.0347644 4.8 0.888988 0.0695288 4.8 0.741126 -0.0910144 4.8 0.807252 -0.182029 4.8 0.568006 0.0347644 4.8 0.542748 0.182029 4.8 0.675 0.1125 4.8 0.461012 0.0695288 4.8 0.675 0 4.8 0.608874 -0.0910144 4.8 0.675 0.225 4.8 0.461012 -0.0695288 4.8 0.542748 -0.182029 4.8 0.675 -0.225 4.8 0.807252 0.182029 4.8 0.888988 -0.0695288 5.2 0.781994 0.0347644 5.2 0.888988 0.0695288 5.2 0.741126 -0.0910144 5.2 0.807252 -0.182029 5.2 0.568006 0.0347644 5.2 0.542748 0.182029 5.2 0.675 0.1125 5.2 0.461012 0.0695288 5.2 0.675 0 5.2 0.608874 -0.0910144 5.2 0.675 0.225 5.2 0.461012 -0.0695288 5.2 0.542748 -0.182029 5.2 0.675 -0.225 5.2 0.807252 0.182029 5.2 0.888988 -0.0695288 5.6 0.781994 0.0347644 5.6 0.888988 0.0695288 5.6 0.741126 -0.0910144 5.6 0.807252 -0.182029 5.6 0.568006 0.0347644 5.6 0.542748 0.182029 5.6 0.675 0.1125 5.6 0.461012 0.0695288 5.6 0.675 0 5.6 0.608874 -0.0910144 5.6 0.675 0.225 5.6 0.461012 -0.0695288 5.6 0.542748 -0.182029 5.6 0.675 -0.225 5.6 0.807252 0.182029 5.6 0.888988 -0.0695288 6 0.781994 0.0347644 6 0.888988 0.0695288 6 0.741126 -0.0910144 6 0.807252 -0.182029 6 0.568006 0.0347644 6 0.542748 0.182029 6 0.675 0.1125 6 0.461012 0.0695288 6 0.675 0 6 0.608874 -0.0910144 6 0.675 0.225 6 0.461012 -0.0695288 6 0.542748 -0.182029 6 0.675 -0.225 6 0.807252 0.182029 6 0.888988 -0.0695288 6.4 0.781994 0.0347644 6.4 0.888988 0.0695288 6.4 0.741126 -0.0910144 6.4 0.807252 -0.182029 6.4 0.568006 0.0347644 6.4 0.542748 0.182029 6.4 0.675 0.1125 6.4 0.461012 0.0695288 6.4 0.675 0 6.4 0.608874 -0.0910144 6.4 0.675 0.225 6.4 0.461012 -0.0695288 6.4 0.542748 -0.182029 6.4 0.675 -0.225 6.4 0.807252 0.182029 6.4 0.888988 -0.0695288 6.8 0.781994 0.0347644 6.8 0.888988 0.0695288 6.8 0.741126 -0.0910144 6.8 0.807252 -0.182029 6.8 0.568006 0.0347644 6.8 0.542748 0.182029 6.8 0.675 0.1125 6.8 0.461012 0.0695288 6.8 0.675 0 6.8 0.608874 -0.0910144 6.8 0.675 0.225 6.8 0.461012 -0.0695288 6.8 0.542748 -0.182029 6.8 0.675 -0.225 6.8 0.807252 0.182029 6.8 0.888988 -0.0695288 7.2 0.781994 0.0347644 7.2 0.888988 0.0695288 7.2 0.741126 -0.0910144 7.2 0.807252 -0.182029 7.2 0.568006 0.0347644 7.2 0.542748 0.182029 7.2 0.675 0.1125 7.2 0.461012 0.0695288 7.2 0.675 0 7.2 0.608874 -0.0910144 7.2 0.675 0.225 7.2 0.461012 -0.0695288 7.2 0.542748 -0.182029 7.2 0.675 -0.225 7.2 0.807252 0.182029 7.2 0.888988 -0.0695288 7.6 0.781994 0.0347644 7.6 0.888988 0.0695288 7.6 0.741126 -0.0910144 7.6 0.807252 -0.182029 7.6 0.568006 0.0347644 7.6 0.542748 0.182029 7.6 0.675 0.1125 7.6 0.461012 0.0695288 7.6 0.675 0 7.6 0.608874 -0.0910144 7.6 0.675 0.225 7.6 0.461012 -0.0695288 7.6 0.542748 -0.182029 7.6 0.675 -0.225 7.6 0.807252 0.182029 7.6 0.695729 -0.0695288 -0.553408 0.611995 0.0347644 -0.486803 0.695729 0.0695288 -0.553408 0.580011 -0.0910144 -0.461362 0.631762 -0.182029 -0.502526 0.444526 0.0347644 -0.353592 0.424759 0.182029 -0.337869 0.528261 0.1125 -0.420197 0.360792 0.0695288 -0.286987 0.528261 0 -0.420197 0.47651 -0.0910144 -0.379033 0.528261 0.225 -0.420197 0.360792 -0.0695288 -0.286987 0.424759 -0.182029 -0.337869 0.528261 -0.225 -0.420197 0.631762 0.182029 -0.502526 0.127774 0.0347644 -0.553448 0.122092 0.182029 -0.528838 0.103705 0.0695288 -0.449197 0.151842 0 -0.6577 0.136967 -0.0910144 -0.593269 0.103705 -0.0695288 -0.449197 0.122092 -0.182029 -0.528838 -0.888988 -0.0695288 2.2226e-15 -0.781994 0.0347644 2.2357e-15 -0.888988 0.0695288 2.2226e-15 -0.888988 -0.0695288 0.4 -0.781994 0.0347644 0.4 -0.888988 0.0695288 0.4 -0.741126 -0.0910144 2.24071e-15 -0.741126 -0.0910144 0.4 -0.807252 -0.182029 2.23261e-15 -0.807252 -0.182029 0.4 -0.568006 0.0347644 2.26191e-15 -0.542748 0.182029 2.265e-15 -0.675 0.1125 2.2488e-15 -0.568006 0.0347644 0.4 -0.542748 0.182029 0.4 -0.675 0.1125 0.4 -0.461012 0.0695288 2.27501e-15 -0.461012 0.0695288 0.4 -0.675 0 2.2488e-15 -0.675 0 0.4 -0.608874 -0.0910144 2.2569e-15 -0.608874 -0.0910144 0.4 -0.675 0.225 2.2488e-15 -0.675 0.225 0.4 -0.461012 -0.0695288 2.27501e-15 -0.461012 -0.0695288 0.4 -0.542748 -0.182029 2.265e-15 -0.542748 -0.182029 0.4 -0.675 -0.225 2.2488e-15 -0.675 -0.225 0.4 -0.807252 0.182029 2.23261e-15 -0.807252 0.182029 0.4 -0.888988 -0.0695288 0.8 -0.781994 0.0347644 0.8 -0.888988 0.0695288 0.8 -0.741126 -0.0910144 0.8 -0.807252 -0.182029 0.8 -0.568006 0.0347644 0.8 -0.542748 0.182029 0.8 -0.675 0.1125 0.8 -0.461012 0.0695288 0.8 -0.675 0 0.8 -0.608874 -0.0910144 0.8 -0.675 0.225 0.8 -0.461012 -0.0695288 0.8 -0.542748 -0.182029 0.8 -0.675 -0.225 0.8 -0.807252 0.182029 0.8 -0.888988 -0.0695288 1.2 -0.781994 0.0347644 1.2 -0.888988 0.0695288 1.2 -0.741126 -0.0910144 1.2 -0.807252 -0.182029 1.2 -0.568006 0.0347644 1.2 -0.542748 0.182029 1.2 -0.675 0.1125 1.2 -0.461012 0.0695288 1.2 -0.675 0 1.2 -0.608874 -0.0910144 1.2 -0.675 0.225 1.2 -0.461012 -0.0695288 1.2 -0.542748 -0.182029 1.2 -0.675 -0.225 1.2 -0.807252 0.182029 1.2 -0.888988 -0.0695288 1.6 -0.78199
[...]
      <PointData>
        <DataArray type="Float32" Name="displacement" NumberOfComponents="3" format="ascii">
-0.00457138 0.000758454 0.00414483 -0.0029409 0.000158684 0.00440669 -0.00205278 0.000370539 0.00398729 2.39872e-05 0.000986856 0.00423668 0.00462893 0.00076709 0.00413368 0.00210823 0.000387563 0.00397933 0.00298319 0.000148249 0.00439062 -0.00458518 -0.000192638 0.00398638 -0.00459182 -0.000808258 0.00396865 -0.00187452 -0.000836524 0.00378431 2.14533e-05 -0.00037095 0.00428251 0.00461882 -0.000814798 0.00399511 0.00463162 -0.000187279 0.00397819 0.00191869 -0.000837607 0.00378731 -0.00482292 0.00149732 0.00371191 -0.00183772 0.0013914 0.00387336 0.00489503 0.00151672 0.00370022 0.00189709 0.00141064 0.00388736 9.5493e-05 0.000766291 0.0034457 2.48096e-05 -0.000913978 0.00310672 -5.10692e-05 0.000812608 0.00350605 -0.000110845 0.00101927 0.00235852 0.000137913 0.00105437 0.00239338 0.000355393 -0.000492106 0.00241313 3.14959e-05 0.00150299 0.00337018 -0.00028674 -0.00055968 0.0024379 2.2415e-05 0.000325865 0.00447539 -0.231274 0.000725935 0.148005 -0.230639 0.000117089 0.114248 -0.231355 -0.000162087 0.148129 -0.11297 0.00104612 0.136027 -0.112816 0.000179991 0.10801 -0.113004 -0.00024871 0.136099 -0.230307 0.000430299 0.101477 -0.112527 0.000617691 0.0973661 -0.23031 0.000989142 0.122391 -0.111923 0.00149199 0.114511 -0.230386 0.000262748 0.04754 -0.230088 0.00080801 0.0394613 -0.23017 0.000173295 0.0809294 -0.113313 0.000471587 0.0536654 -0.113082 0.00141569 0.0470959 -0.11257 0.000348977 0.0804649 -0.23079 0.000535988 0.0136474 -0.114646 0.000995391 0.0270057 -0.230301 0.000194543 0.0808939 -0.112826 0.000310301 0.0805315 -0.23014 -1.21746e-05 0.0602573 -0.11285 -6.04625e-05 0.0637504 -0.229759 0.000158242 0.0809826 -0.11181 0.000272284 0.0804066 -0.230729 -0.000324936 0.0136945 -0.114513 -0.000518245 0.0270026 -0.229916 -0.00055204 0.0393114 -0.112897 -0.000948057 0.0469737 -0.229588 0.000234231 0.0808495 -0.111657 0.000326377 0.0802634 -0.230472 -0.000467231 0.122438 -0.112119 -0.000729163 0.114597 -0.365124 0.000318064 0.154245 -0.365038 8.99391e-05 0.117657 -0.365185 4.0062e-05 0.154342 -0.364916 0.000195609 0.103761 -0.36484 0.000392854 0.126413 -0.365007 5.87913e-05 0.045035 -0.364995 0.000149932 0.0362903 -0.36496 5.21664e-05 0.0813751 -0.365146 8.12762e-05 0.0083137 -0.36496 8.60177e-05 0.0813425 -0.364899 3.372e-05 0.0588766 -0.364882 1.59591e-05 0.081403 -0.365078 -9.54934e-05 0.00834359 -0.364831 -9.88954e-05 0.0361538 -0.364688 0.000155471 0.0812893 -0.365005 -9.86637e-05 0.126469 -0.503788 -7.65899e-05 0.15386 -0.50401 7.55025e-05 0.117621 -0.503847 0.0002473 0.153957 -0.504037 -3.81885e-05 0.103866 -0.504059 -0.00020093 0.126293 -0.503956 -0.00011799 0.0457574 -0.504138 -0.000403048 0.0371097 -0.504169 -4.17989e-05 0.0817051 -0.503726 -0.000306934 0.00945451 -0.504043 -1.2348e-05 0.0816809 -0.504003 6.09106e-05 0.0594522 -0.504414 -6.90874e-05 0.0817292 -0.503669 8.4905e-05 0.00948425 -0.503979 0.000268072 0.0369878 -0.504203 4.62579e-05 0.0816252 -0.504215 0.000287462 0.126338 -0.635067 -0.00042135 0.14743 -0.635606 6.20635e-05 0.1146 -0.635118 0.000429108 0.147511 -0.635768 -0.00024156 0.102134 -0.635837 -0.000718707 0.122452 -0.635551 -0.00027612 0.049455 -0.635927 -0.000908848 0.0416199 -0.635985 -0.000125421 0.0820426 -0.635015 -0.000660886 0.0165518 -0.635747 -9.83917e-05 0.0820203 -0.635734 8.90833e-05 0.0618717 -0.636516 -0.000152848 0.0820644 -0.634961 0.00025806 0.0165792 -0.635772 0.000611777 0.0415144 -0.636287 -4.27402e-05 0.0819758 -0.63599 0.000623194 0.122491 -0.748401 -0.00071631 0.135714 -0.749204 5.33904e-05 0.108919 -0.748447 0.000588529 0.135782 -0.749484 -0.000414289 0.0987473 -0.749603 -0.00116325 0.115331 -0.749156 -0.0004096 0.0557628 -0.749692 -0.00133895 0.0493665 -0.749777 -0.000195624 0.0823534 -0.74835 -0.00096134 0.0289098 -0.749443 -0.000170029 0.082336 -0.749454 0.000116097 0.065895 -0.750554 -0.000220649 0.0823704 -0.748303 0.000407091 0.0289332 -0.749541 0.000907012 0.0492807 -0.750311 -0.000117816 0.0822992 -0.749751 0.000916346 0.115361 -0.834686 -0.000951102 0.119584 -0.835703 4.88875e-05 0.101025 -0.834728 0.000719463 0.119635 -0.836078 -0.000551126 0.0939855 -0.836234 -0.00151867 0.105474 -0.835657 -0.00051443 0.0642423 -0.836324 -0.001682 0.0598054 -0.836431 -0.000248891 0.0826425 -0.834638 -0.00120052 0.0456387 -0.83602 -0.00022523 0.0826297 -0.83605 0.000139491 0.0712526 -0.837405 -0.00027218 0.0826547 -0.834594 0.000529186 0.0456577 -0.836176 0.00114623 0.0597416 -0.83715 -0.000176566 0.0826028 -0.836379 0.00115482 0.105494 -0.886601 -0.00111945 0.100047 -0.887774 4.89151e-05 0.0914188 -0.88664 0.000818467 0.10008 -0.888219 -0.000648255 0.0881579 -0.888402 -0.00177558 0.093503 -0.887732 -0.000587825 0.0743902 -0.888495 -0.00192849 0.0723143 -0.888616 -0.000284328 0.0829099 -0.886557 -0.00137182 0.0657318 -0.888148 -0.000262475 0.0829024 -0.888192 0.000159224 0.0776337 -0.889735 -0.000305739 0.0829169 -0.886516 0.000620738 0.0657459 -0.888348 0.00132281 0.0722744 -0.88947 -0.000217405 0.0828858 -0.888545 0.00133278 0.0935137 -0.89881 -0.00121731 0.078199 -0.900079 5.36043e-05 0.0806472 -0.898848 0.000883488 0.0782138 -0.900566 -0.000703311 0.081602 -0.900765 -0.00192792 0.0800953 -0.900041 -0.000627913 0.0856606 -0.900862 -0.00207256 0.0862168 -0.900991 -0.000300754 0.0831555 -0.898772 -0.00147114 0.0880939 -0.900489 -0.00028073 0.0831533 -0.900542 0.000174825 0.0847004 -0.902197 -0.000320336 0.0831572 -0.898732 0.000679819 0.0881029 -0.900716 0.00143277 0.0862016 -0.901927 -0.000239276 0.0831476 -0.900908 0.00144622 0.0800958 -0.868089 -0.00124361 0.0551744 -0.869392 6.3189e-05 0.0692763 -0.868126 0.000914236 0.0551709 -0.869893 -0.000715608 0.0746674 -0.870096 -0.0019742 0.0659525 -0.869357 -0.000634108 0.0974869 -0.870198 -0.00211269 0.100811 -0.870328 -0.000297805 0.0833795 -0.868057 -0.00149735 0.111589 -0.869814 -0.000279603 0.0833828 -0.869871 0.000186421 0.0921025 -0.871565 -0.00031557 0.0833757 -0.868018 0.000706133 0.111593 -0.870051 0.00147539 0.100821 -0.871291 -0.000241815 0.0833878 -0.87024 0.00149451 0.0659427 -0.793345 -0.00120044 0.0320969 -0.794623 7.78965e-05 0.0578664 -0.793384 0.000912298 0.032076 -0.795112 -0.000686228 0.0677003 -0.795309 -0.00191769 0.0517689 -0.794591 -0.000607187 0.109309 -0.795417 -0.0020521 0.115404 -0.795542 -0.000275745 0.0835821 -0.793322 -0.00145262 0.135093 -0.795037 -0.000259361 0.0835905 -0.795092 0.000194552 0.0994936 -0.796753 -0.000291712 0.083573 -0.793281 0.000701235 0.135092 -0.795269 0.0014534 0.115437 -0.796479 -0.000225279 0.083606 -0.795454 0.00148029 0.0517489 -0.675554 -0.00109311 0.0100225 -0.676752 9.80077e-05 0.0469441 -0.675595 0.000881229 0.00998583 -0.677204 -0.000618066 0.0610258 -0.677385 -0.00176659 0.0381972 -0.676724 -0.000549296 0.1206 -0.6775 -0.00189881 0.129341 -0.677613 -0.000235508 0.0837632 -0.67554 -0.00134235 0.157549 -0.677138 -0.00022094 0.0837765 -0.677187 0.000200251 0.106548 -0.678749 -0.000249695 0.0837492 -0.675497 0.000668561 0.157545 -0.677349 0.00137315 0.129396 -0.678478 -0.0001906 0.0838018 -0.677533 0.00140972 0.0381674 -0.517575 -0.000930038 -0.0101156 -0.518645 0.000123879 0.0369747 -0.517619 0.000826537 -0.0101655 -0.519041 -0.000515757 0.0549315 -0.519197 -0.00153387 0.0258145 -0.518621 -0.00046389 0.130896 -0.51932 -0.00166547 0.142048 -0.519417 -0.000178642 0.0839231 -0.51757 -0.00117516 0.178023 -0.518988 -0.000165887 0.0839408 -0.519026 0.000205053 0.112978 -0.520433 -0.000191064 0.0839047 -0.517525 0.000613439 0.178017 -0.519166 0.0012445 0.142122 -0.520167 -0.000139322 0.0839748 -0.519349 0.00129237 0.0257753 -0.32387 -0.000722524 -0.0275596 -0.324779 0.00015599 0.0283359 -0.323918 0.000755604 -0.0276197 -0.325102 -0.000385506 0.0496506 -0.325226 -0.00123689 0.0150891 -0.324758 -0.0003556 0.139817 -0.325358 -0.00136909 0.153054 -0.325434 -0.000107219 0.0840617 -0.323876 -0.00096258 0.195758 -0.325064 -9.62757e-05 0.0840832 -0.325089 0.000211021 0.11855 -0.326298 -0.000117886 0.0840396 -0.323827 0.000543008 0.19575 -0.325199 0.0010807 0.153144 -0.326039 -7.35108e-05 0.0841247 -0.325383 0.00114107 0.0150413 -0.100132 -0.000484336 -0.0417756 -0.100857 0.000195002 0.0212936 -0.100185 0.000677554 -0.0418422 -0.101098 -0.000234841 0.0453473 -0.101187 -0.000896901 0.0063512 -0.10084 -0.000230022 0.147099 -0.101327 -0.00103039 0.162032 -0.10138 -2.37055e-05 0.0841793 -0.10015 -0.000718687 0.210218 -0.101078 -1.45727e-05 0.0842038 -0.101087 0.000220753 0.123099 -0.102072 -3.26219e-05 0.0841542 -0.100097 0.000466095 0.210211 -0.101165 0.000898043 0.162133 -0.101821 4.37609e-06 0.0842513 -0.101348 0.000971658 0.00629529 0.147177 -0.00023123 -0.0524957 0.146643 0.00024185 0.0159807 0.147121 0.000603091 -0.0525648 0.146487 -7.233e-05 0.0421037 0.146435 -0.000538266 -0.000233467 0.146657 -9.34807e-05 0.152607 0.146286 -0.000673208 0.168814 0.146257 6.92107e-05 0.0842757 0.147148 -0.00045958 0.221135 0.14649 7.65281e-05 0.0843025 0.146496 0.000237426 0.126544 0.145744 6.20438e-05 0.0842484 0.147206 0.000393059 0.221131 0.146453 0.000715531 0.168922 0.145986 9.16536e-05 0.0843546 0.146269 0.000802554 -0.000296877 0.411365 1.96746e-05 -0.0597515 0.411011 0.000297752 0.0123807 0.411303 0.000544248 -0.0598187 0.410935 9.29157e-05 0.0399096 0.410918 -0.000187607 -0.00468429 0.411021 4.73416e-05 0.15636 0.41076 -0.000323533 0.173421 0.410754 0.000168795 0.084351 0.411324 -0.000202762 0.228541 0.410921 0.000174299 0.0843793 0.410942 0.000264715 0.128894 0.41041 0.000163394 0.0843221 0.411386 0.000335551 0.228543 0.410931 0.000554334 0.173532 0.410644 0.000185606 0.0844344 0.410747 0.000654313 -0.00475492 0.686088 0.000250194 -0.063901 0.685886 0.000364625 0.0103146 0.686024 0.000514512 -0.0639624 0.685878 0.000251131 0.0386546 0.68589 0.000126599 -0.00722254 0.685893 0.00018544 0.158535 0.685724 -9.24244e-06 0.176073 0.685737 0.000272513 0.084405 0.686038 3.3161e-05 0.232793 0.685849 0.000276197 0.0844342 0.685883 0.000307289 0.13026 0.685536 0.000268862 0.0843752 0.686103 0.000306675 0.232803 0.685899 0.000437905 0.176182 0.685763 0.000283732 0.084491 0.685716 0.000549683 -0.00730026 0.965988 0.000442834 -0.0656436 0.965891 0.000444269 0.00942874 0.965921 0.000527531 -0.0656932 0.965929 0.000393792 0.0381199 0.965962 0.000376598 -0.00827895 0.965894 0.000314829 0.159486 0.965789 0.000243083 0.177203 0.965816 0.000378359 0.0844374 0.965928 0.000230461 0.234589 0.96589 0.000380094 0.0844668 0.965931 0.000369225 0.130861 0.965713 0.000376639 0.0844074 0.965995 0.000319469 0.234612 0.965966 0.000389256 0.177306 0.965935 0.000383613 0.0845246 0.965785 0.000511486 -0.00836543 1.24735 0.000578741 -0.0660387 1.24729 0.000540407 0.00921372 1.24728 0.000599875 -0.0660799 1.24734 0.000511329 0.0379916 1.24738 0.000532338 -0.00851326 1.24729 0.000428269 0.159725 1.24721 0.000401296 0.177466 1.24724 0.000483931 0.0844489 1.24728 0.000368407 0.234999 1.2473 0.000484524 0.0844784 1.24735 0.000458686 0.131012 1.24717 0.00048331 0.0844191 1.24735 0.000391052 0.235031 1.24739 0.000438692 0.177564 1.24739 0.000485755 0.0845366 1.24721 0.000565777 -0.00860525 0.00081525 0.00147536 0.0712379 -0.0111706 0.00018811 0.058285 0.000827423 -0.000488235 0.0713127 -0.0152912 0.000753289 0.0531198 -0.00743369 0.00194417 0.0606027 -0.0343898 0.000659187 0.033026 -0.0369181 0.00210766 0.0297616 -0.022437 0.000521483 0.0452428 -0.0472503 0.00144484 0.0211698 -0.0226542 0.00036965 0.045429 -0.0296514 -0.000224166 0.0375436 -0.0215293 0.000469236 0.0446854 -0.0470162 -0.000839515 0.0210759 -0.0367449 -0.00153012 0.0296002 -0.0214615 0.000238599 0.0445717 -0.00758687 -0.00103144 0.0606647 -0.00464574 0.000745331 0.00356576 -0.00616554 0.0028143 0.0032069 -0.0106825 0.00180195 0.00501473 -0.000335467 0.000303353 0.0037917 -0.0028668 -0.000627781 0.00336729 -0.010428 -0.00120075 0.00479257 -0.00617446 -0.00235023 0.00307819 0.11301 0.000958911 0.136005 0.112842 0.00010863 0.107986 0.113025 -0.000336506 0.136071 0.231306 0.00065526 0.147982 0.230656 6.13251e-05 0.114223 0.231367 -0.00023254 0.148101 0.11257 0.000551008 0.0973481 0.230342 0.000380473 0.101459 0.111979 0.00141626 0.114496 0.230358 0.000929867 0.122375 0.113339 0.000429018 0.0536458 0.113086 0.00137728 0.0470715 0.112585 0.000289262 0.0804363 0.230403 0.000237534 0.0475196 0.230084 0.000786215 0.039435 0.230176 0.000133333 0.0809041 0.114667 0.000968694 0.0269872 0.230802 0.000525907 0.0136278 0.112857 0.000251595 0.0805104 0.230323 0.00015442 0.0808729 0.112893 -0.000109296 0.0637351 0.230175 -4.31409e-05 0.0602414 0.111808 0.000214302 0.0803763 0.22975 0.000117692 0.0809517 0.114553 -0.000545155 0.0269899 0.23076 -0.000335061 0.0136807 0.112954 -0.000986743 0.0469636 0.229964 -0.000573878 0.0393006 0.11172 0.000266196 0.0802534 0.229642 0.000194324 0.0808376 0.112124 -0.000804721 0.114563 0.230468 -0.000526537 0.122407 0.365149 0.000262635 0.154223 0.365048 4.99129e-05 0.117633 0.365189 -1.54797e-05 0.154315 0.364943 0.000161419 0.103742 0.36488 0.000349154 0.126396 0.365016 4.95616e-05 0.0450145 0.364983 0.000144387 0.0362648 0.364958 2.73993e-05 0.0813498 0.365151 8.75305e-05 0.00829373 0.364974 6.12788e-05 0.0813213 0.364927 1.85236e-05 0.05886 0.364864 -8.72054e-06 0.0813739 0.365103 -8.93175e-05 0.00832876 0.364872 -0.000104593 0.0361417 0.364735 0.000130543 0.0812765 0.364993 -0.000142413 0.126439 0.503806 -0.000118654 0.153838 0.504013 4.89392e-05 0.117597 0.503845 0.000205216 0.15393 0.504059 -5.88063e-05 0.103847 0.504093 -0.000231184 0.126276 0.503959 -0.000113366 0.0457367 0.50412 -0.000394776 0.0370847 0.50416 -5.27867e-05 0.0816803 0.503724 -0.000286669 0.00943432 0.504051 -2.33134e-05 0.0816597 0.504024 5.95391e-05 0.0594349 0.504389 -8.01768e-05 0.0817007 0.503687 0.000105117 0.00946846 0.504014 0.000276258 0.0369743 0.504243 3.52051e-05 0.0816111 0.504197 0.000257143 0.126309 0.63508 -0.000452013 0.147408 0.635603 4.70969e-05 0.114577 0.63511 0.000398403 0.147486 0.635784 -0.000250528 0.102114 0.635866 -0.000737418 0.122434 0.635549 -0.000259562 0.0494341 0.635903 -0.000888578 0.0415954 0.635971 -0.000124667 0.0820183 0.635007 -0.000628506 0.0165313 0.63575 -9.76214e-05 0.081999 0.63575 9.95677e-05 0.0618536 0.636485 -0.000152152 0.0820371 0.634974 0.000290376 0.0165625 0.635802 0.000631938 0.0414996 0.636323 -4.2088e-05 0.0819606 0.635965 0.000604428 0.122463 0.748409 -0.000737625 0.135692 0.749196 4.79249e-05 0.108896 0.748435 0.000567175 0.135757 0.749496 -0.000413691 0.0987272 0.749628 -0.0011725 0.115312 0.749148 -0.00038321 0.0557418 0.749663 -0.00130882 0.0493425 0.749758 -0.000185203 0.0823297 0.748338 -0.000918964 0.0288891 0.749441 -0.000159586 0.0823146 0.749466 0.000136352 0.0658763 0.750518 -0.000210301 0.0823442 0.748311 0.000449407 0.0289154 0.749566 0.000937039 0.0492645 0.750342 -0.000107489 0.0822826 0.749722 0.000907039 0.115334 0.834691 -0.000965238 0.119562 0.835692 5.07529e-05 0.101002 0.834712 0.000705286 0.119611 0.836086 -0.000543139 0.093965 0.836256 -0.00152062 0.105454 0.835647 -0.000480406 0.0642211 0.836291 -0.0016442 0.059782 0.836408 -0.00023099 0.0826192 0.834622 -0.00115036 0.0456177 0.836014 -0.000207307 0.0826082 0.836058 0.000167321 0.0712331 0.837366 -0.000254353 0.0826297 0.834599 0.000579288 0.0456389 0.836198 0.00118393 0.0597241 0.837178 -0.000158763 0.082585 0.836346 0.00115281 0.105469 0.886603 -0.00112866 0.100025 0.887761 5.58494e-05 0.0913964 0.886622 0.00080922 0.100057 0.888224 -0.000635146 0.088137 0.888421 -0.0017725 0.0934827 0.887719 -0.00054845 0.0743689 0.888459 -0.00188531 0.0722916 0.888591 -0.000261218 0.0828873 0.886538 -0.00131617 0.0657106 0.88814 -0.000239341 0.0828808 0.888198 0.000192352 0.0776134 0.889693 -0.000282705 0.0828931 0.886518 0.000676335 0.0657261 0.888368 0.00136589 0.0722554 0.889496 -0.000194392 0.0828666 0.88851 0.0013358 0.0934897 0.898812 -0.00122388 0.0781772 0.900065 6.3307e-05 0.0806252 0.898828 0.000876878 0.0781914 0.900571 -0.000687383 0.0815806 0.900783 -0.0019221 0.0800742 0.900027 -0.000585509 0.0856391 0.900824 -0.00202632 0.0861947 0.900964 -0.000274745 0.0831335 0.898752 -0.00141232 0.0880725 0.90048 -0.000254697 0.0831318 0.900546 0.000210933 0.0846794 0.902154 -0.000294403 0.0831346 0.898734 0.000738576 0.0880821 0.900734 0.00147892 0.0861811 0.901952 -0.000213363 0.083127 0.900871 0.00145198 0.0800731 0.868089 -0.00124982 0.0551527 0.869376 7.33732e-05 0.0692547 0.868106 0.000907987 0.0551494 0.869897 -0.000699153 0.0746456 0.870114 -0.00196793 0.0659306 0.869342 -0.000590984 0.0974653 0.87016 -0.0020657 0.10079 0.870301 -0.000271194 0.083358 0.868037 -0.0014377 0.111567 0.869805 -0.000252968 0.0833611 0.869875 0.000223205 0.0920808 0.87152 -0.000289033 0.0833544 0.868019 0.00076573 0.111571 0.87007 0.00152228 0.100799 0.871316 -0.000215296 0.0833659 0.870202 0.00150072 0.0659213 0.793347 -0.00120849 0.0320753 0.794608 8.63517e-05 0.0578452 0.793364 0.00090421 0.0320553 0.795117 -0.000671459 0.0676781 0.795328 -0.00191317 0.0517463 0.794577 -0.000565577 0.109287 0.795379 -0.0020066 0.115383 0.795515 -0.000250753 0.0835611 0.793302 -0.00139437 0.135071 0.795028 -0.000234347 0.0835688 0.795097 0.000229785 0.0994711 0.796709 -0.00026679 0.0835528 0.793283 0.000759426 0.13507 0.795287 0.00149882 0.115414 0.796505 -0.000200372 0.0835828 0.795417 0.00148476 0.0517287 0.675557 -0.00110506 0.0100009 0.676738 0.000102662 0.0469232 0.675577 0.000869242 0.00996584 0.677211 -0.000607059 0.0610033 0.677406 -0.00176589 0.038174 0.67671 -0.000511293 0.120579 0.677464 -0.00185689 0.129321 0.677588 -0.000214216 0.0837427 0.675521 -0.00128762 0.157527 0.67713 -0.000199628 0.0837548 0.677193 0.000231844 0.106525 0.678706 -0.000228466 0.0837301 0.6755 0.000723241 0.157521 0.67737 0.00141499 0.129372 0.678505 -0.000169385 0.0837774 0.677497 0.00141037 0.0381483 0.51758 -0.00094776 -0.0101372 0.518634 0.00012286 0.0369542 0.517602 0.000808787 -0.0101849 0.51905 -0.000510389 0.0549087 0.51922 -0.00153886 0.0257906 0.51861 -0.000431391 0.130874 0.519286 -0.00162903 0.142028 0.519393 -0.000162934 0.0839031 0.517554 -0.00112585 0.178001 0.518982 -0.000150161 0.083919 0.519034 0.000231115 0.112954 0.520392 -0.00017541 0.0838865 0.51753 0.0006627 0.177993 0.519188 0.00128087 0.142096 0.520196 -0.00012368 0.0839494 0.519315 0.00128733 0.0257573 0.323878 -0.000747628 -0.0275811 0.32477 0.000147674 0.0283156 0.323904 0.000730478 -0.0276385 0.325114 -0.000387405 0.0496275 0.325252 -0.0012492 0.0150647 0.324749 -0.000330251 0.139795 0.325326 -0.00133978 0.153035 0.325413 -9.87295e-05 0.0840421 0.323862 -0.000920363 0.195736 0.325061 -8.77716e-05 0.0840614 0.3251 0.000229911 0.118525 0.32626 -0.000109441 0.0840223 0.323835 0.000585192 0.195725 0.325225 0.00110995 0.153118 0.326071 -6.50762e-05 0.0840985 0.325351 0.00112873 0.0150241 0.100144 -0.000518147 -0.0417971 0.100852 0.000178051 0.0212735 0.100174 0.000643725 -0.0418606 0.101113 -0.000245349 0.0453239 0.101216 -0.000917852 0.00632641 0.100835 -0.000213184 0.147077 0.101299 -0.00100958 0.162013 0.101363 -2.37825e-05 0.08416 0.10014 -0.000684926 0.210195 0.101078 -1.46388e-05 0.0841819 0.101102 0.000231115 0.123074 0.102037 -3.27336e-05 0.0841374 0.100108 0.00049983 0.210186 0.101194 0.000918816 0.162106 0.101857 4.25566e-06 0.0842244 0.10132 0.000950679 0.00627876 -0.147162 -0.000274769 -0.0525171 -0.146645 0.000215232 0.0159607 -0.147127 0.00055954 -0.0525828 -0.146469 -9.24824e-05 0.0420802 -0.146402 -0.000568893 -0.000258564 -0.146659 -8.62074e-05 0.152585 -0.14631 -0.000661942 0.168795 -0.14627 5.9524e-05 0.0842567 -0.147155 -0.000435342 0.221113 -0.146486 6.6849e-05 0.0842806 -0.146477 0.00023821 0.126519 -0.145775 5.23328e-05 0.0842321 -0.147191 0.000417279 0.221106 -0.14642 0.000726766 0.168894 -0.145946 8.19355e-05 0.0843271 -0.146294 0.000771908 -0.0003129 -0.411345 -3.43049e-05 -0.0597729 -0.411008 0.000260742 0.0123609 -0.411306 0.000490261 -0.0598365 -0.410912 6.2389e-05 0.039886 -0.410881 -0.000228632 -0.0047096 -0.411018 4.4302e-05 0.156338 -0.41078 -0.000322567 0.173402 -0.410763 0.00