<?xml version="1.0"?>
<!--Shaheen-->
<VTKFile type="UnstructuredGrid" version="0.1" byte_order="LittleEndian">
  <UnstructuredGrid>
    <Piece NumberOfPoints="791" NumberOfCells="973">
      <Points>
        <DataArray type="Float32" NumberOfComponents="3" format="ascii">
-0.190211 -0.0618034 -0.866203 -0.17591 0.0347644 -0.761951 -0.166717 -0.0910144 -0.722131 0 -0.0768927 -0.886453 0.190211 -0.0618034 -0.866203 0.166717 -0.0910144 -0.722131 0.17591 0.0347644 -0.761951 -0.190211 0.0618034 -0.866203 -0.181592 0.2 -0.786562 -0.117557 0.161803 -0.847614 0 0.0768927 -0.886453 0.181592 0.2 -0.786562 0.190211 0.0618034 -0.866203 0.117557 0.161803 -0.847614 -0.181592 -0.2 -0.786562 -0.117557 -0.161803 -0.847614 0.181592 -0.2 -0.786562 0.117557 -0.161803 -0.847614 -0.151842 0.1125 -0.6577 0 0.2 -0.792573 0.151842 0.1125 -0.6577 -0.151842 0.225 -0.6577 0.151842 0.225 -0.6577 0.151842 -0.225 -0.6577 0 -0.2 -0.792573 -0.151842 -0.225 -0.6577 0 -7.38343e-17 -0.9 0.888988 -0.0695288 0.4 0.781994 0.0347644 0.4 0.888988 0.0695288 0.4 0.888988 -0.0695288 2.2226e-15 0.781994 0.0347644 2.2357e-15 0.888988 0.0695288 2.2226e-15 0.741126 -0.0910144 0.4 0.741126 -0.0910144 2.24071e-15 0.807252 -0.182029 0.4 0.807252 -0.182029 2.23261e-15 0.568006 0.0347644 0.4 0.542748 0.182029 0.4 0.675 0.1125 0.4 0.568006 0.0347644 2.26191e-15 0.542748 0.182029 2.265e-15 0.675 0.1125 2.2488e-15 0.461012 0.0695288 0.4 0.461012 0.0695288 2.27501e-15 0.675 0 0.4 0.675 0 2.2488e-15 0.608874 -0.0910144 0.4 0.608874 -0.0910144 2.2569e-15 0.675 0.225 0.4 0.675 0.225 2.2488e-15 0.461012 -0.0695288 0.4 0.461012 -0.0695288 2.27501e-15 0.542748 -0.182029 0.4 0.542748 -0.182029 2.265e-15 0.675 -0.225 0.4 0.675 -0.225 2.2488e-15 0.807252 0.182029 0.4 0.807252 0.182029 2.23261e-15 0.888988 -0.0695288 0.8 0.781994 0.0347644 0.8 0.888988 0.0695288 0.8 0.741126 -0.0910144 0.8 0.807252 -0.182029 0.8 0.568006 0.0347644 0.8 0.542748 0.182029 0.8 0.675 0.1125 0.8 0.461012 0.0695288 0.8 0.675 0 0.8 0.608874 -0.0910144 0.8 0.675 0.225 0.8 0.461012 -0.0695288 0.8 0.542748 -0.182029 0.8 0.675 -0.225 0.8 0.807252 0.182029 0.8 0.888988 -0.0695288 1.2 0.781994 0.0347644 1.2 0.888988 0.0695288 1.2 0.741126 -0.0910144 1.2 0.807252 -0.182029 1.2 0.568006 0.0347644 1.2 0.542748 0.182029 1.2 0.675 0.1125 1.2 0.461012 0.0695288 1.2 0.675 0 1.2 0.608874 -0.0910144 1.2 0.675 0.225 1.2 0.461012 -0.0695288 1.2 0.542748 -0.182029 1.2 0.675 -0.225 1.2 0.807252 0.182029 1.2 0.888988 -0.0695288 1.6 0.781994 0.0347644 1.6 0.888988 0.0695288 1.6 0.741126 -0.0910144 1.6 0.807252 -0.182029 1.6 0.568006 0.0347644 1.6 0.542748 0.182029 1.6 0.675 0.1125 1.6 0.461012 0.0695288 1.6 0.675 0 1.6 0.608874 -0.0910144 1.6 0.675 0.225 1.6 0.461012 -0.0695288 1.6 0.542748 -0.182029 1.6 0.675 -0.225 1.6 0.807252 0.182029 1.6 0.888988 -0.0695288 2 0.781994 0.0347644 2 0.888988 0.0695288 2 0.741126 -0.0910144 2 0.807252 -0.182029 2 0.568006 0.0347644 2 0.542748 0.182029 2 0.675 0.1125 2 0.461012 0.0695288 2 0.675 0 2 0.608874 -0.0910144 2 0.675 0.225 2 0.461012 -0.0695288 2 0.542748 -0.182029 2 0.675 -0.225 2 0.807252 0.182029 2 0.888988 -0.0695288 2.4 0.781994 0.0347644 2.4 0.888988 0.0695288 2.4 0.741126 -0.0910144 2.4 0.807252 -0.182029 2.4 0.568006 0.0347644 2.4 0.542748 0.182029 2.4 0.675 0.1125 2.4 0.461012 0.0695288 2.4 0.675 0 2.4 0.608874 -0.0910144 2.4 0.675 0.225 2.4 0.461012 -0.0695288 2.4 0.542748 -0.182029 2.4 0.675 -0.225 2.4 0.807252 0.182029 2.4 0.888988 -0.0695288 2.8 0.781994 0.0347644 2.8 0.888988 0.0695288 2.8 0.741126 -0.0910144 2.8 0.807252 -0.182029 2.8 0.568006 0.0347644 2.8 0.542748 0.182029 2.8 0.675 0.1125 2.8 0.461012 0.0695288 2.8 0.675 0 2.8 0.608874 -0.0910144 2.8 0.675 0.225 2.8 0.461012 -0.0695288 2.8 0.542748 -0.182029 2.8 0.675 -0.225 2.8 0.807252 0.182029 2.8 0.888988 -0.0695288 3.2 0.781994 0.0347644 3.2 0.888988 0.0695288 3.2 0.741126 -0.0910144 3.2 0.807252 -0.182029 3.2 0.568006 0.0347644 3.2 0.542748 0.182029 3.2 0.675 0.1125 3.2 0.461012 0.0695288 3.2 0.675 0 3.2 0.608874 -0.0910144 3.2 0.675 0.225 3.2 0.461012 -0.0695288 3.2 0.542748 -0.182029 3.2 0.675 -0.225 3.2 0.807252 0.182029 3.2 0.888988 -0.0695288 3.6 0.781994 0.0347644 3.6 0.888988 0.0695288 3.6 0.741126 -0.0910144 3.6 0.807252 -0.182029 3.6 0.568006 0.0347644 3.6 0.542748 0.182029 3.6 0.675 0.1125 3.6 0.461012 0.0695288 3.6 0.675 0 3.6 0.608874 -0.0910144 3.6 0.675 0.225 3.6 0.461012 -0.0695288 3.6 0.542748 -0.182029 3.6 0.675 -0.225 3.6 0.807252 0.182029 3.6 0.888988 -0.0695288 4 0.781994 0.0347644 4 0.888988 0.0695288 4 0.741126 -0.0910144 4 0.807252 -0.182029 4 0.568006 0.0347644 4 0.542748 0.182029 4 0.675 0.1125 4 0.461012 0.0695288 4 0.675 0 4 0.608874 -0.0910144 4 0.675 0.225 4 0.461012 -0.0695288 4 0.542748 -0.182029 4 0.675 -0.225 4 0.807252 0.182029 4 0.888988 -0.0695288 4.4 0.781994 0.0347644 4.4 0.888988 0.0695288 4.4 0.741126 -0.0910144 4.4 0.807252 -0.182029 4.4 0.568006 0.0347644 4.4 0.542748 0.182029 4.4 0.675 0.1125 4.4 0.461012 0.0695288 4.4 0.675 0 4.4 0.608874 -0.0910144 4.4 0.675 0.225 4.4 0.461012 -0.0695288 4.4 0.542748 -0.182029 4.4 0.675 -0.225 4.4 0.807252 0.182029 4.4 0.888988 -0.0695288 4.8 0.781994 0.0347644 4.8 0.888988 0.0695288 4.8 0.741126 -0.0910144 4.8 0.807252 -0.182029 4.8 0.568006 0.0347644 4.8 0.542748 0.182029 4.8 0.675 0.1125 4.8 0.461012 0.0695288 4.8 0.675 0 4.8 0.608874 -0.0910144 4.8 0.675 0.225 4.8 0.461012 -0.0695288 4.8 0.542748 -0.182029 4.8 0.675 -0.225 4.8 0.807252 0.182029 4.8 0.888988 -0.0695288 5.2 0.781994 0.0347644 5.2 0.888988 0.0695288 5.2 0.741126 -0.0910144 5.2 0.807252 -0.182029 5.2 0.568006 0.0347644 5.2 0.542748 0.182029 5.2 0.675 0.1125 5.2 0.461012 0.0695288 5.2 0.675 0 5.2 0.608874 -0.0910144 5.2 0.675 0.225 5.2 0.461012 -0.0695288 5.2 0.542748 -0.182029 5.2 0.675 -0.225 5.2 0.807252 0.182029 5.2 0.888988 -0.0695288 5.6 0.781994 0.0347644 5.6 0.888988 0.0695288 5.6 0.741126 -0.0910144 5.6 0.807252 -0.182029 5.6 0.568006 0.0347644 5.6 0.542748 0.182029 5.6 0.675 0.1125 5.6 0.461012 0.0695288 5.6 0.675 0 5.6 0.608874 -0.0910144 5.6 0.675 0.225 5.6 0.461012 -0.0695288 5.6 0.542748 -0.182029 5.6 0.675 -0.225 5.6 0.807252 0.182029 5.6 0.888988 -0.0695288 6 0.781994 0.0347644 6 0.888988 0.0695288 6 0.741126 -0.0910144 6 0.807252 -0.182029 6 0.568006 0.0347644 6 0.542748 0.182029 6 0.675 0.1125 6 0.461012 0.0695288 6 0.675 0 6 0.608874 -0.0910144 6 0.675 0.225 6 0.461012 -0.0695288 6 0.542748 -0.182029 6 0.675 -0.225 6 0.807252 0.182029 6 0.888988 -0.0695288 6.4 0.781994 0.0347644 6.4 0.888988 0.0695288 6.4 0.741126 -0.0910144 6.4 0.807252 -0.182029 6.4 0.568006 0.0347644 6.4 0.542748 0.182029 6.4 0.675 0.1125 6.4 0.461012 0.0695288 6.4 0.675 0 6.4 0.608874 -0.0910144 6.4 0.675 0.225 6.4 0.461012 -0.0695288 6.4 0.542748 -0.182029 6.4 0.675 -0.225 6.4 0.807252 0.182029 6.4 0.888988 -0.0695288 6.8 0.781994 0.0347644 6.8 0.888988 0.0695288 6.8 0.741126 -0.0910144 6.8 0.807252 -0.182029 6.8 0.568006 0.0347644 6.8 0.542748 0.182029 6.8 0.675 0.1125 6.8 0.461012 0.0695288 6.8 0.675 0 6.8 0.608874 -0.0910144 6.8 0.675 0.225 6.8 0.461012 -0.0695288 6.8 0.542748 -0.182029 6.8 0.675 -0.225 6.8 0.807252 0.182029 6.8 0.888988 -0.0695288 7.2 0.781994 0.0347644 7.2 0.888988 0.0695288 7.2 0.741126 -0.0910144 7.2 0.807252 -0.182029 7.2 0.568006 0.0347644 7.2 0.542748 0.182029 7.2 0.675 0.1125 7.2 0.461012 0.0695288 7.2 0.675 0 7.2 0.608874 -0.0910144 7.2 0.675 0.225 7.2 0.461012 -0.0695288 7.2 0.542748 -0.182029 7.2 0.675 -0.225 7.2 0.807252 0.182029 7.2 0.888988 -0.0695288 7.6 0.781994 0.0347644 7.6 0.888988 0.0695288 7.6 0.741126 -0.0910144 7.6 0.807252 -0.182029 7.6 0.568006 0.0347644 7.6 0.542748 0.182029 7.6 0.675 0.1125 7.6 0.461012 0.0695288 7.6 0.675 0 7.6 0.608874 -0.0910144 7.6 0.675 0.225 7.6 0.461012 -0.0695288 7.6 0.542748 -0.182029 7.6 0.675 -0.225 7.6 0.807252 0.182029 7.6 0.695729 -0.0695288 -0.553408 0.611995 0.0347644 -0.486803 0.695729 0.0695288 -0.553408 0.580011 -0.0910144 -0.461362 0.631762 -0.182029 -0.502526 0.444526 0.0347644 -0.353592 0.424759 0.182029 -0.337869 0.528261 0.1125 -0.420197 0.360792 0.0695288 -0.286987 0.528261 0 -0.420197 0.47651 -0.0910144 -0.379033 0.528261 0.225 -0.420197 0.360792 -0.0695288 -0.286987 0.424759 -0.182029 -0.337869 0.528261 -0.225 -0.420197 0.631762 0.182029 -0.502526 0.127774 0.0347644 -0.553448 0.122092 0.182029 -0.528838 0.103705 0.0695288 -0.449197 0.151842 0 -0.6577 0.136967 -0.0910144 -0.593269 0.103705 -0.0695288 -0.449197 0.122092 -0.182029 -0.528838 -0.888988 -0.0695288 2.2226e-15 -0.781994 0.0347644 2.2357e-15 -0.888988 0.0695288 2.2226e-15 -0.888988 -0.0695288 0.4 -0.781994 0.0347644 0.4 -0.888988 0.0695288 0.4 -0.741126 -0.0910144 2.24071e-15 -0.741126 -0.0910144 0.4 -0.807252 -0.182029 2.23261e-15 -0.807252 -0.182029 0.4 -0.568006 0.0347644 2.26191e-15 -0.542748 0.182029 2.265e-15 -0.675 0.1125 2.2488e-15 -0.568006 0.0347644 0.4 -0.542748 0.182029 0.4 -0.675 0.1125 0.4 -0.461012 0.0695288 2.27501e-15 -0.461012 0.0695288 0.4 -0.675 0 2.2488e-15 -0.675 0 0.4 -0.608874 -0.0910144 2.2569e-15 -0.608874 -0.0910144 0.4 -0.675 0.225 2.2488e-15 -0.675 0.225 0.4 -0.461012 -0.0695288 2.27501e-15 -0.461012 -0.0695288 0.4 -0.542748 -0.182029 2.265e-15 -0.542748 -0.182029 0.4 -0.675 -0.225 2.2488e-15 -0.675 -0.225 0.4 -0.807252 0.182029 2.23261e-15 -0.807252 0.182029 0.4 -0.888988 -0.0695288 0.8 -0.781994 0.0347644 0.8 -0.888988 0.0695288 0.8 -0.741126 -0.0910144 0.8 -0.807252 -0.182029 0.8 -0.568006 0.0347644 0.8 -0.542748 0.182029 0.8 -0.675 0.1125 0.8 -0.461012 0.0695288 0.8 -0.675 0 0.8 -0.608874 -0.0910144 0.8 -0.675 0.225 0.8 -0.461012 -0.0695288 0.8 -0.542748 -0.182029 0.8 -0.675 -0.225 0.8 -0.807252 0.182029 0.8 -0.888988 -0.0695288 1.2 -0.781994 0.0347644 1.2 -0.888988 0.0695288 1.2 -0.741126 -0.0910144 1.2 -0.807252 -0.182029 1.2 -0.568006 0.0347644 1.2 -0.542748 0.182029 1.2 -0.675 0.1125 1.2 -0.461012 0.0695288 1.2 -0.675 0 1.2 -0.608874 -0.0910144 1.2 -0.675 0.225 1.2 -0.461012 -0.0695288 1.2 -0.542748 -0.182029 1.2 -0.675 -0.225 1.2 -0.807252 0.182029 1.2 -0.888988 -0.0695288 1.6 -0.78199
[...]
      <PointData>
        <DataArray type="Float32" Name="displacement" NumberOfComponents="3" format="ascii">
-0.0871934 0.271296 -0.000200804 0.0500681 0.255058 0.000679815 -0.132382 0.242323 -0.00165714 -0.107748 -1.27932e-05 -8.67756e-06 -0.0872075 -0.271296 0.000203468 -0.132402 -0.24234 0.00165273 0.0499675 -0.25507 -0.000688669 0.0870392 0.270869 0.000349481 0.290469 0.263813 0.00271615 0.229669 0.168319 0.000884734 0.107323 4.81413e-06 -7.70371e-06 0.290491 -0.263833 -0.00272723 0.0870095 -0.270886 -0.000344575 0.229752 -0.16832 -0.000894557 -0.290457 0.26345 -0.00258199 -0.230038 0.168522 -0.00103036 -0.290437 -0.26346 0.00257439 -0.229968 -0.168534 0.00101755 0.164647 0.220502 0.00238698 0.289228 -3.04246e-06 -3.64839e-06 0.164675 -0.220505 -0.00238474 0.329435 0.220458 0.00395382 0.32947 -0.220466 -0.00396006 -0.329609 -0.220458 0.00395082 -0.289753 -3.03941e-06 -7.42293e-06 -0.329638 0.22044 -0.00395894 7.39769e-07 -4.97078e-06 -8.43959e-06 -0.121558 -1.15491 0.0258451 0.06061 -0.968651 -0.0129794 0.121568 -1.15494 -0.0259567 -0.11731 -1.27565 0.0204565 0.0584116 -1.09491 -0.0102748 0.117286 -1.27573 -0.0205664 -0.158478 -0.897322 0.0338058 -0.152781 -1.02582 0.0265677 -0.317488 -1.01159 0.0678181 -0.306353 -1.13671 0.0530171 0.0601919 -0.597144 -0.0130006 0.315041 -0.552419 -0.0679869 0.195462 -0.782287 -0.0419114 0.0578608 -0.736314 -0.0099274 0.302857 -0.692953 -0.0516014 0.18826 -0.914595 -0.0326498 0.120028 -0.411928 -0.0260471 0.115152 -0.558326 -0.0194472 -3.53731e-06 -0.782674 -4.86393e-05 -2.51922e-05 -0.915057 -4.94992e-05 -0.157813 -0.667716 0.0338461 -0.151853 -0.804159 0.0260184 0.390888 -0.781125 -0.0839556 0.376638 -0.913448 -0.0648763 -0.12006 -0.411894 0.0259341 -0.115236 -0.558262 0.0193948 -0.315017 -0.552415 0.0679318 -0.302838 -0.692944 0.0514601 -0.390903 -0.781159 0.0838259 -0.376644 -0.913458 0.0648317 0.317447 -1.0116 -0.0678944 0.306264 -1.13667 -0.053183 -0.125494 -1.00199 0.0309598 0.0625969 -0.809295 -0.0155192 0.125504 -1.00202 -0.031074 -0.163719 -0.735559 0.0404514 -0.327932 -0.853971 0.0811808 0.0622451 -0.424986 -0.015523 0.325826 -0.378938 -0.0812779 0.202008 -0.616594 -0.0501186 0.124193 -0.233394 -0.0310881 -3.87587e-06 -0.616922 -4.98636e-05 -0.163147 -0.498046 0.0404596 0.404023 -0.615678 -0.100489 -0.124218 -0.233362 0.0309776 -0.325806 -0.378937 0.0812148 -0.404028 -0.615698 0.100342 0.327898 -0.853971 -0.0812431 -0.129163 -0.821764 0.0346507 0.0644869 -0.623304 -0.0173456 0.129163 -0.821783 -0.0347679 -0.16874 -0.547413 0.0452326 -0.337773 -0.66965 0.0908442 0.0642723 -0.226997 -0.0173463 0.336491 -0.179791 -0.0908775 0.208348 -0.424821 -0.0560204 0.128366 -0.0291743 -0.0347641 -4.91698e-06 -0.42502 -5.01352e-05 -0.168393 -0.302481 0.0452291 0.416703 -0.424253 -0.112389 -0.128386 -0.0291561 0.0346394 -0.336484 -0.179792 0.0908273 -0.416713 -0.424267 0.112223 0.337746 -0.669652 -0.0908885 -0.132573 -0.624664 0.0363833 0.0662502 -0.420736 -0.0182043 0.132554 -0.624668 -0.0365007 -0.173459 -0.342824 0.0474814 -0.346977 -0.468762 0.0953889 0.0662006 -0.0130308 -0.0182076 0.346659 0.0351919 -0.0954318 0.214334 -0.216807 -0.0588022 0.132368 0.190745 -0.0365093 -1.07224e-05 -0.216853 -5.07229e-05 -0.173379 -0.0908488 0.0474791 0.428677 -0.216675 -0.11802 -0.132392 0.19075 0.0363774 -0.346676 0.035192 0.0953873 -0.428698 -0.216678 0.117843 0.346952 -0.468761 -0.0954251 -0.135744 -0.422996 0.0358722 0.0678975 -0.213961 -0.0179453 0.135701 -0.422984 -0.0359903 -0.177891 -0.13417 0.0468033 -0.355581 -0.263615 0.0940528 0.0680301 0.204495 -0.0179498 0.356329 0.253626 -0.0940909 0.219977 -0.00493714 -0.0579651 0.136192 0.413929 -0.0359989 -1.84474e-05 -0.00481388 -5.11716e-05 -0.178106 0.124451 0.0468009 0.439973 -0.00528322 -0.116367 -0.136222 0.413917 0.0358634 -0.356376 0.253625 0.0940472 -0.440009 -0.00527535 0.116185 0.355555 -0.263614 -0.0940856 -0.138699 -0.230378 0.0330029 0.0694359 -0.0165673 -0.0165137 0.13863 -0.23035 -0.0331206 -0.182041 0.0649766 0.043054 -0.36362 -0.0677742 0.0865386 0.0697513 0.411974 -0.0165181 0.365433 0.461933 -0.0865802 0.22527 0.197218 -0.0533313 0.139799 0.626732 -0.0331296 -2.71107e-05 0.197511 -5.16184e-05 -0.182552 0.329829 0.0430511 0.450567 0.196392 -0.10708 -0.139838 0.626704 0.0329938 -0.365512 0.461932 0.086533 -0.450622 0.196411 0.1069 0.36359 -0.0677725 -0.0865747 -0.141459 -0.060445 0.0278682 0.0708713 0.157822 -0.0139549 0.141365 -0.060403 -0.0279848 -0.185913 0.241001 0.0363526 -0.371122 0.105172 0.07309 0.0713547 0.595766 -0.0139589 0.373915 0.646503 -0.07314 0.230205 0.37605 -0.0450491 0.143158 0.815485 -0.0279929 -3.5378e-05 0.376498 -5.20262e-05 -0.186695 0.511666 0.0363502 0.460446 0.374782 -0.0904575 -0.143205 0.815443 0.0278602 -0.374023 0.6465 0.0730851 -0.460517 0.374812 0.0902867 0.371089 0.105174 -0.0731351 -0.144042 0.0742674 0.0207452 0.072209 0.296683 -0.0104066 0.143928 0.0743216 -0.0208601 -0.18951 0.381393 0.02706 -0.378116 0.242728 0.0544327 0.0728325 0.743334 -0.0104096 0.381724 0.794822 -0.0544952 0.234776 0.519049 -0.0335641 0.14624 0.967624 -0.0208661 -4.2182e-05 0.519628 -5.2404e-05 -0.190519 0.657439 0.0270582 0.469595 0.517415 -0.0673974 -0.146294 0.96757 0.0207392 -0.381857 0.794819 0.054429 -0.469679 0.517453 0.0672403 0.37808 0.242731 -0.0544915 -0.146462 0.163329 0.0120668 0.0734532 0.389595 -0.00608404 0.146334 0.163392 -0.0121796 -0.192834 0.475736 0.0157399 -0.384619 0.334496 0.0317007 0.0741778 0.844244 -0.00608558 0.388818 0.896475 -0.0317789 0.238976 0.615804 -0.0195729 0.149021 1.07269 -0.0121827 -4.66242e-05 0.616477 -5.27493e-05 -0.194006 0.756724 0.0157389 0.477999 0.613904 -0.039301 -0.14908 1.07263 0.0120636 -0.388968 0.896472 0.0316988 -0.478092 0.613949 0.0391618 0.384582 0.334499 -0.031777 -0.148727 0.199213 0.00238193 0.074606 0.429037 -0.00126032 0.148594 0.199281 -0.00249239 -0.195885 0.516514 0.0031073 -0.390643 0.372969 0.00633268 0.0753857 0.890959 -0.00126015 0.395166 0.943941 -0.00642825 0.242799 0.658798 -0.00395955 0.151486 1.12313 -0.00249208 -4.80496e-05 0.659522 -5.30624e-05 -0.197146 0.801998 0.0031074 0.485646 0.656754 -0.00794639 -0.151544 1.12306 0.00238224 -0.395323 0.943937 0.00633287 -0.485742 0.656801 0.00782723 0.390608 0.372973 -0.00642844 -0.15084 0.177842 -0.00769265 0.0756676 0.410927 0.00375782 0.15071 0.17791 0.00758446 -0.19866 0.499648 -0.0100344 -0.396187 0.354076 -0.0200559 0.0764531 0.879389 0.00375983 0.400747 0.933132 0.0199426 0.246239 0.643949 0.0122831 0.153623 1.11484 0.00758848 -4.60618e-05 0.644678 -5.33431e-05 -0.199931 0.789174 -0.0100331 0.492525 0.64189 0.0246696 -0.153677 1.11477 -0.00768863 -0.400901 0.933128 -0.0200534 -0.492617 0.641938 -0.0247682 0.396156 0.35408 0.0199401 -0.152794 0.0988217 -0.0175268 0.0766358 0.334866 0.00865693 0.152678 0.0988864 0.0174205 -0.201153 0.424735 -0.0228643 -0.401239 0.277416 -0.0458138 0.0773789 0.809124 0.00866078 0.405559 0.863634 0.0456841 0.249292 0.570852 0.0281405 0.155433 1.0474 0.0174282 -4.05331e-05 0.571541 -5.35911e-05 -0.202356 0.717842 -0.0228619 0.498624 0.568904 0.0565062 -0.155478 1.04734 -0.0175191 -0.405697 0.863631 -0.0458091 -0.498705 0.56895 -0.0565855 0.401216 0.27742 0.0456793 -0.154577 -0.0346348 -0.0265331 0.0775063 0.204055 0.0131449 0.154483 -0.0345776 0.026428 -0.203357 0.294967 -0.0346175 -0.405774 0.146178 -0.0694021 0.0781643 0.683354 0.0131505 0.409607 0.738628 0.0692586 0.251951 0.442691 0.0426671 0.156922 0.92402 0.0264392 -3.15931e-05 0.443302 -5.38064e-05 -0.204422 0.59119 -0.034614 0.503933 0.440968 0.0856612 -0.156953 0.923964 -0.0265219 -0.409721 0.738625 -0.0693952 -0.503997 0.441008 -0.0857244 0.405762 0.146181 0.0692517 -0.156169 -0.216122 -0.0342219 0.0782725 0.0248792 0.0169784 0.156104 -0.216075 0.034117 -0.205261 0.116721 -0.0446567 -0.409757 -0.0332681 -0.0895377 0.0788126 0.508458 0.0169854 0.412914 0.564471 0.0893845 0.254213 0.265837 0.0550753 0.158105 0.751082 0.0341312 -1.95975e-05 0.266339 -5.39888e-05 -0.206135 0.415589 -0.0446523 0.508445 0.264424 0.110549 -0.158118 0.751035 -0.0342077 -0.412995 0.564468 -0.089529 -0.508484 0.264457 -0.110601 0.40976 -0.0332652 0.0893758 -0.157544 -0.436758 -0.0402517 0.078926 -0.193801 0.0199878 0.157515 -0.436724 0.0401458 -0.206851 -0.101158 -0.052538 -0.413142 -0.25209 -0.105326 0.0793287 0.293288 0.019996 0.415512 0.349988 0.105168 0.256073 0.0491237 0.0648163 0.159005 0.537454 0.0401623 -5.07811e-06 0.0494978 -5.41382e-05 -0.207502 0.199879 -0.0525329 0.512151 0.0480725 0.130062 -0.158996 0.53742 -0.0402352 -0.415553 0.349986 -0.105315 -0.512161 0.048097 -0.130109 0.413163 -0.252087 0.105158 -0.158672 -0.686178 -0.0444721 0.0794574 -0.441647 0.022099 0.158682 -0.686156 0.0443635 -0.208112 -0.348348 -0.0580668 -0.415877 -0.499979 -0.116371 0.0797192 0.0481781 0.022108 0.417444 0.10548 0.116215 0.257528 -0.197138 0.0716497 0.159649 0.293495 0.0443816 1.13241e-05 -0.196894 -5.42545e-05 -0.208536 -0.0456193 -0.0580612 0.515044 -0.197818 0.143714 -0.159614 0.293473 -0.0444539 -0.417441 0.105479 -0.11636 -0.515022 -0.197802 -0.143764 0.41592 -0.499977 0.116204 -0.159517 -0.953745 -0.0469578 0.0798554 -0.708053 0.0233496 0.159568 -0.953734 0.0468449 -0.209028 -0.614261 -0.0613421 -0.417901 -0.766367 -0.122869 0.0799925 -0.21627 0.0233591 0.41876 -0.158489 0.122721 0.258575 -0.462372 0.0756978 0.160069 0.0298315 0.0468641 2.89405e-05 -0.462245 -5.43376e-05 -0.20925 -0.310323 -0.0613362 0.51712 -0.462722 0.151746 -0.160005 0.0298205 -0.0469387 -0.418712 -0.158489 -0.122857 -0.517062 -0.462714 -0.151806 0.417969 -0.766366 0.12271 -0.160044 -1.22993 -0.0480312 0.08011 -0.983523 0.0239031 0.160137 -1.22993 0.0479108 -0.209583 -0.88942 -0.0627918 -0.419155 -1.04179 -0.125661 0.0801564 -0.490564 0.0239129 0.419513 -0.432464 0.125531 0.259211 -0.737115 0.0774896 0.160302 -0.244014 0.0479304 4.71664e-05 -0.737072 -5.43871e-05 -0.209658 -0.584755 -0.0627857 0.518375 -0.737226 0.155196 -0.160206 -0.244017 -0.0480116 -0.419422 -0.432464 -0.125649 -0.51828 -0.737224 -0.155279 0.419252 -1.04179 0.125519 -0.160213 -1.50783 -0.0482818 0.0802082 -1.26117 0.0240421 0.160344 -1.50783 0.0481564 -0.209758 -1.16696 -0.0631558 -0.419569 -1.31942 -0.126304 0.0802224 -0.767819 0.024052 0.419769 -0.709607 0.126187 0.259435 -1.01452 0.0779395 0.160386 -0.521124 0.048176 6.55604e-05 -1.0145 -5.44047e-05 -0.209781 -0.862054 -0.0631498 0.518805 -1.01454 0.155991 -0.160255 -0.521124 -0.0482622 -0.419638 -0.709608 -0.126292 -0.518674 -1.01454 -0.15609 0.419701 -1.31942 0.126175 -0.109749 -1.06144 0.0129023 0.0547496 -0.915936 -0.00638521 0.109687 -1.0616 -0.0129599 -0.14315 -0.86067 0.0163928 -0.286389 -0.949961 0.0339187 0.0544364 -0.628709 -0.00606941 0.285158 -0.59438 -0.0316002 0.176569 -0.771705 -0.0199912 0.108779 -0.485778 -0.0118392 -1.36056e-05 -0.771836 -4.33003e-05 -0.142739 -0.683179 0.0159017 0.353114 -0.771361 -0.0402159 -0.108858 -0.485774 0.0118327 -0.285237 -0.594328 0.0314985 -0.353142 -0.771358 0.0401044 0.286271 -0.949832 -0.0339628 0.0512157 -0.182833 -0.00103204 0.268206 -0.174085 -0.00485638 0.102812 -0.143793 -0.00223492 -0.000104338 -0.220368 -5.6607e-05 -0.133974 -0.197524 0.00240122 -0.102929 -0.14386 0.00223484 -0.268277 -0.174064 0.00479008 -0.117327 1.27562 -0.0204801 0.0583974 1.09489 0.0102532 0.117266 1.2757 0.0205423 -0.121576 1.15489 -0.0258664 0.0605868 0.96863 0.0129575 0.121545 1.15492 0.0259341 -0.152796 1.02579 -0.0265886 -0.158496 0.897303 -0.0338262 -0.306367 1.13669 -0.05304 -0.317504 1.01157 -0.0678376 0.0578431 0.736297 0.00990931 0.302836 0.692936 0.0515828 0.188239 0.914575 0.032628 0.0601695 0.597129 0.0129799 0.315014 0.552405 0.0679649 0.195437 0.782269 0.0418898 0.115134 0.558312 0.0194319 0.120005 0.411916 0.0260262 -4.10312e-05 0.915037 2.94156e-05 -2.52307e-05 0.782657 2.78241e-05 -0.151867 0.80414 -0.0260366 -0.157832 0.6677 -0.033866 0.376615 0.913427 0.0648533 0.39086 0.781108 0.0839332 -0.115251 0.558247 -0.0194093 -0.120079 0.411882 -0.0259539 -0.30285 0.692927 -0.0514764 -0.315034 0.5524 -0.0679508 -0.376657 0.913437 -0.0648518 -0.390918 0.781141 -0.0838447 0.30624 1.13665 0.0531584 0.31742 1.01158 0.0678718 -0.125511 1.00197 -0.0309771 0.0625774 0.809277 0.0154994 0.125483 1.002 0.0310554 -0.163735 0.735543 -0.0404706 -0.327946 0.853954 -0.0811981 0.0622254 0.424975 0.0155001 0.325803 0.378928 0.0812532 0.201986 0.61658 0.0500964 0.124172 0.233386 0.0310633 -2.26052e-05 0.616908 2.87681e-05 -0.163163 0.498034 -0.0404806 0.403998 0.615664 0.100466 -0.124235 0.233354 -0.0310011 -0.325819 0.378927 -0.0812359 -0.404041 0.615684 -0.100361 0.327874 0.853953 0.081222 -0.129171 0.821748 -0.0346654 0.0644758 0.623292 0.0173267 0.129152 0.821766 0.0347516 -0.168747 0.547402 -0.045251 -0.337777 0.669637 -0.0908597 0.0642614 0.226991 0.0173218 0.336475 0.179786 0.0908505 0.208335 0.424812 0.0559978 0.128354 0.0291712 0.0347362 -1.48985e-05 0.42501 2.88645e-05 -0.168401 0.302473 -0.0452511 0.416686 0.424243 0.112365 -0.128394 0.0291527 -0.0346656 -0.336488 0.179786 -0.0908501 -0.416716 0.424257 -0.112242 0.33773 0.669639 0.0908687 -0.132568 0.624652 -0.0363964 0.0662522 0.420728 0.0181861 0.132555 0.624657 0.0364859 -0.173453 0.342818 -0.0474994 -0.346968 0.468753 -0.0954035 0.0662026 0.0130293 0.0181819 0.346656 -0.0351925 0.0954033 0.214333 0.216803 0.0587793 0.132369 -0.190744 0.0364794 -7.70517e-06 0.216849 2.92182e-05 -0.173373 0.090846 -0.0475018 0.428673 0.216671 0.117996 -0.132387 -0.190748 -0.0364056 -0.346667 -0.0351928 -0.0954112 -0.428689 0.216674 -0.117862 0.346949 0.468753 0.095406 -0.135724 0.422989 -0.0358847 0.0679148 0.213958 0.0179273 0.135717 0.422978 0.0359761 -0.17787 0.134168 -0.0468214 -0.355557 0.263611 -0.0940671 0.0680474 -0.204492 0.0179235 0.356341 -0.253622 0.0940619 0.219992 0.00493744 0.057942 0.136208 -0.413922 0.0359681 -7.76888e-08 0.00481416 2.94728e-05 -0.178085 -0.124449 -0.0468241 0.439984 0.00528353 0.116342 -0.136202 -0.41391 -0.0358926 -0.356352 -0.253621 -0.0940718 -0.439984 0.0052756 -0.116204 0.355567 0.263611 0.0940668 -0.138663 0.230376 -0.0330158 0.069469 0.016569 0.0164955 0.138662 0.230349 0.033106 -0.182004 -0.0649737 -0.0430723 -0.36358 0.0677749 -0.0865534 0.0697844 -0.411965 0.0164918 0.365461 -0.461924 0.0865512 0.225301 -0.197213 0.0533081 0.139831 -0.62672 0.0330987 7.13459e-06 -0.197505 2.97311e-05 -0.182515 -0.329822 -0.0430745 0.450595 -0.196387 0.107055 -0.139801 -0.626692 -0.033023 -0.365471 -0.461922 -0.0865578 -0.45058 -0.196406 -0.10692 0.363619 0.0677734 0.0865558 -0.141408 0.0604473 -0.0278825 0.070919 -0.157816 0.013936 0.141412 0.0604054 0.0279692 -0.185861 -0.240994 -0.0363716 -0.371068 -0.105167 -0.0731059 0.0714025 -0.595753 0.013933 0.373958 -0.646489 0.0731119 0.230251 -0.37604 0.045026 0.143204 -0.815469 0.027963 1.35346e-05 -0.376489 2.99657e-05 -0.186643 -0.511654 -0.0363736 0.460488 -0.374773 0.0904333 -0.143154 -0.815427 -0.0278886 -0.373968 -0.646487 -0.0731097 -0.460461 -0.374803 -0.0903066 0.371132 -0.105169 0.0731156 -0.143979 -0.0742618 -0.0207616 0.0722686 -0.296674 0.0103868 0.143986 -0.0743158 0.0208427 -0.189446 -0.381382 -0.02708 -0.378049 -0.24272 -0.0544503 0.0728921 -0.743318 0.0103845 0.381779 -0.794805 0.0544684 0.234833 -0.519036 0.0335411 0.146298 -0.967604 0.0208381 1.86491e-05 -0.519615 3.01834e-05 -0.190455 -0.657423 -0.0270814 0.469648 -0.517402 0.0673735 -0.146231 -0.96755 -0.0207662 -0.38179 -0.794802 -0.0544531 -0.469611 -0.51744 -0.067261 0.378135 -0.242722 0.0544713 -0.146391 -0.163321 -0.012086 0.0735207 -0.389584 0.00606296 0.1464 -0.163384 0.0121598 -0.192762 -0.475723 -0.015761 -0.384544 -0.334485 -0.0317206 0.0742453 -0.844225 0.00606163 0.388881 -0.896456 0.031754 0.239041 -0.615789 0.0195501 0.149088 -1.07267 0.0121571 2.211e-05 -0.616462 3.03822e-05 -0.193935 -0.756707 -0.0157618 0.47806 -0.613889 0.0392777 -0.149009 -1.0726 -0.0120886 -0.388893 -0.896452 -0.0317222 -0.478016 -0.613934 -0.0391832 0.384645 -0.334489 0.0317557 -0.148653 -0.199205 -0.00240426 0.0746765 -0.429024 0.00123784 0.148663 -0.199272 0.00246995 -0.19581 -0.516501 -0.0031297 -0.390565 -0.372958 -0.00635497 0.0754562 -0.89094 0.00123757 0.395231 -0.94392 0.00640554 0.242867 -0.658782 0.00393696 0.151555 -1.1231 0.00246941 2.36455e-05 -0.659506 3.05626e-05 -0.197071 -0.80198 -0.00312986 0.48571 -0.656738 0.00792371 -0.15147 -1.12304 -0.00240479 -0.395244 -0.943917 -0.0063553 -0.485663 -0.656785 -0.00784955 0.390673 -0.372962 0.00640587 -0.150769 -0.177834 0.00766699 0.0757355 -0.410915 -0.00378177 0.150777 -0.177902 -0.00760975 -0.198587 -0.499635 0.0100106 -0.396112 -0.354065 0.020031 0.076521 -0.87937 -0.00378093 0.40081 -0.933111 -0.019963 0.246305 -0.643933 -0.0123054 0.15369 -1.11481 -0.00760806 2.31092e-05 -0.644663 3.07242e-05 -0.199858 -0.789156 0.0100111 0.492586 -0.641874 -0.0246916 -0.153606 -1.11474 0.00766868 -0.400825 -0.933107 0.020032 -0.49254 -0.641922 0.0247449 0.396219 -0.354069 -0.019964 -0.152731 -0.0988155 0.0174978 0.0766956 -0.334856 -0.00868233 0.152736 -0.0988798 -0.0174486 -0.201089 -0.424723 0.0228392 -0.401172 -0.277407 0.0457864 0.0774386 -0.809106 -0.0086804 0.405613 -0.863616 -0.0457021 0.249349 -0.570838 -0.0281625 0.155491 -1.04738 -0.0174447 2.04861e-05 -0.571528 3.08671e-05 -0.202291 -0.717826 0.0228404 0.498677 -0.56889 -0.0565276 -0.155415 -1.04732 0.0175017 -0.40563 -0.863612 0.0457888 -0.498636 -0.568936 0.0565614 0.401271 -0.27741 -0.0457045 -0.154527 0.0346378 0.0265011 0.0775525 -0.204048 -0.0131716 0.154527 0.0345809 -0.0264587 -0.203306 -0.294958 0.0345912 -0.40572 -0.146172 0.0693724 0.0782105 -0.683339 -0.0131687 0.409648 -0.738612 -0.0692745 0.251994 -0.442681 -0.0426889 0.156967 -0.924002 -0.0264528 1.58902e-05 -0.443292 3.09911e-05 -0.204371 -0.591177 0.034593 0.503973 -0.440957 -0.0856819 -0.156904 -0.923945 0.0265069 -0.409667 -0.738609 0.069376 -0.503941 -0.440997 0.0856995 0.405803 -0.146175 -0.0692781 -0.156138 0.216121 0.0341873 0.0783003 -0.0248765 -0.0170063 0.156131 0.216074 -0.0341499 -0.205228 -0.116717 0.0446294 -0.409721 0.0332696 0.0895059 0.0788404 -0.508447 -0.0170025 0.412936 -0.564459 -0.0893986 0.254238 -0.265831 -0.0550968 0.158132 -0.751067 -0.0341424 9.54962e-06 -0.266332 3.10961e-05 -0.206102 -0.41558 0.0446317 0.508466 -0.264417 -0.110569 -0.158087 -0.751021 0.0341948 -0.412959 -0.564457 0.0895106 -0.508447 -0.26445 0.110575 0.409782 0.0332671 -0.0894032 -0.157535 0.436752 0.0402151 0.0789316 0.193798 -0.0200166 0.157519 0.436717 -0.0401804 -0.20684 0.101157 0.0525098 -0.413129 0.252086 0.105292 0.0793342 -0.293283 -0.0200122 0.415512 -0.349982 -0.10518 0.256076 -0.0491225 -0.0648377 0.159009 -0.537445 -0.0401715 1.78111e-06 -0.0494965 3.11821e-05 -0.207492 -0.199876 0.0525126 0.512149 -0.0480713 -0.130082 -0.158986 -0.537411 0.0402239 -0.41554 -0.34998 0.105298 -0.512146 -0.0480958 0.130083 0.413164 0.252084 -0.105186 -0.158688 0.686165 0.044434 0.0794377 0.441639 -0.0221284 0.158661 0.686143 -0.0443994 -0.208127 0.348341 0.058038 -0.415889 0.499969 0.116336 0.0796996 -0.0481789 -0.0221235 0.417419 -0.10548 -0.116226 0.257505 0.197133 -0.071671 0.159628 -0.293492 -0.0443896 -7.04563e-06 0.19689 3.12491e-05 -0.208551 0.045617 0.0580411 0.515018 0.197813 -0.143733 -0.159629 -0.29347 0.0444438 -0.417453 -0.105479 0.116342 -0.515032 0.197797 0.143737 0.415895 0.499968 -0.116233 -0.15956 0.953726 0.0469189 0.0798086 0.708038 -0.0233794 0.15952 0.953715 -0.0468816 -0.20907 0.614248 0.061313 -0.41794 0.766351 0.122834 0.0799457 0.216263 -0.0233743 0.418708 0.158482 -0.122732 0.258525 0.462361 -0.075719 0.160021 -0.0298348 -0.0468712 -1.65513e-05 0.462233 3.1297e-05 -0.209292 0.310314 0.0613162 0.517066 0.462711 -0.151765 -0.160048 -0.0298238 0.0469293 -0.418751 0.158483 0.12284 -0.517099 0.462703 0.15178 0.417917 0.76635 -0.122739 -0.160115 1.22991 0.0479918 0.0800351 0.983501 -0.0239331 0.160061 1.22991 -0.0479478 -0.209653 0.8894 0.0627625 -0.419222 1.04177 0.125625 0.0800815 0.49055 -0.0239278 0.419433 0.432451 -0.125542 0.259133 0.737097 -0.0775107 0.160225 0.244004 -0.0479372 -2.63964e-05 0.737054 3.13255e-05 -0.209728 0.58474 0.0627658 0.5182