<VTKFile type="UnstructuredGrid" version="1.0" byte_order="LittleEndian" header_type="UInt64">
  <UnstructuredGrid>
    <Piece NumberOfPoints="791" NumberOfCells="973">
      <PointData>
        <DataArray type="Float32" Name="displacement" NumberOfComponents="3" format="ascii" RangeMin="0" RangeMax="1.517096114">
          -0.087193399668 0.27129599452 -0.00020080400282 0.050068099052 0.25505799055 0.00067981501343
          -0.13238200545 0.24232299626 -0.0016571399756 -0.10774800181 -1.2793199858e-05 -8.6775598902e-06
          -0.087207503617 -0.27129599452 0.00020346799283 -0.13240200281 -0.24233999848 0.0016527300468
          0.049967501312 -0.25507000089 -0.00068866898073 0.087039202452 0.27086898685 0.00034948100802
          0.2904689908 0.263812989 0.002716149902 0.22966900468 0.16831900179 0.00088473397773
          0.10732299834 4.8141300795e-06 -7.7037102528e-06 0.29049101472 -0.26383298635 -0.0027272300795
          0.087009496987 -0.27088600397 -0.00034457500442 0.22975200415 -0.16832000017 -0.00089455698617
          -0.29045701027 0.26344999671 -0.0025819900911 -0.23003800213 0.16852200031 -0.0010303599993
          -0.29043701291 -0.26346001029 0.0025743900333 -0.22996799648 -0.16853399575 0.0010175500065
          0.16464699805 0.22050200403 0.0023869799916 0.2892279923 -3.0424600936e-06 -3.6483900203e-06
          0.16467499733 -0.22050499916 -0.0023847399279 0.32943499088 0.2204580009 0.0039538200945
          0.32947000861 -0.22046600282 -0.0039600599557 -0.32960900664 -0.2204580009 0.0039508198388
          -0.28975299001 -3.0394101032e-06 -7.422930139e-06 -0.3296380043 0.2204400003 -0.0039589400403
          7.3976900694e-07 -4.9707800827e-06 -8.439589692e-06 -0.12155800313 -1.1549099684 0.025845099241
          0.060610000044 -0.96865099669 -0.012979400344 0.12156800181 -1.1549400091 -0.025956699625
          -0.11731000245 -1.2756500244 0.020456500351 0.058411598206 -1.0949100256 -0.010274799541
          0.11728599668 -1.2757300138 -0.020566400141 -0.15847800672 -0.89732199907 0.033805798739
          -0.15278099477 -1.0258200169 0.026567699388 -0.3174880147 -1.011590004 0.06781809777
          -0.30635300279 -1.1367100477 0.053017098457 0.060191899538 -0.59714400768 -0.01300060004
          0.31504100561 -0.55241900682 -0.067986898124 0.19546200335 -0.78228700161 -0.041911400855
          0.057860799134 -0.7363139987 -0.0099274003878 0.30285701156 -0.69295299053 -0.051601398736
          0.18826000392 -0.9145950079 -0.032649800181 0.1200279966 -0.41192799807 -0.026047099382
          0.11515200138 -0.55832600594 -0.0194472 -3.5373100218e-06 -0.78267401457 -4.8639300076e-05
          -2.5192199246e-05 -0.9150570035 -4.9499198212e-05 -0.1578129977 -0.66771602631 0.03384609893
          -0.15185299516 -0.80415898561 0.026018399745 0.3908880055 -0.78112500906 -0.083955600858
          0.37663799524 -0.91344797611 -0.064876303077 -0.12005999684 -0.41189399362 0.025934100151
          -0.11523599923 -0.55826199055 0.019394800067 -0.31501701474 -0.55241501331 0.067931801081
          -0.30283799767 -0.69294399023 0.051460098475 -0.39090299606 -0.78115898371 0.083825901151
          -0.37664398551 -0.91345798969 0.064831696451 0.3174470067 -1.0116000175 -0.067894399166
          0.30626401305 -1.1366699934 -0.053183000535 -0.1254940033 -1.0019899607 0.030959799886
          0.062596902251 -0.80929499865 -0.015519199893 0.12550400198 -1.0020200014 -0.031074000522
          -0.16371899843 -0.73555898666 0.040451399982 -0.32793200016 -0.85397100449 0.081180803478
          0.062245100737 -0.42498600483 -0.015522999689 0.32582598925 -0.37893798947 -0.081277899444
          0.20200799406 -0.61659401655 -0.050118599087 0.12419299781 -0.23339399695 -0.031088100746
          -3.8758698793e-06 -0.61692202091 -4.9863599997e-05 -0.16314700246 -0.49804601073 0.040459599346
          0.40402299166 -0.61567801237 -0.100488998 -0.12421800196 -0.23336200416 0.030977599323
          -0.32580599189 -0.378937006 0.081214800477 -0.40402799845 -0.61569797993 0.10034199804
          0.32789799571 -0.85397100449 -0.081243097782 -0.12916299701 -0.82176399231 0.034650698304
          0.064486898482 -0.62330400944 -0.01734559983 0.12916299701 -0.82178300619 -0.034767899662
          -0.1687400043 -0.54741299152 0.045232601464 -0.33777299523 -0.66965001822 0.090844199061
          0.064272299409 -0.22699700296 -0.017346300185 0.33649098873 -0.17979100347 -0.090877503157
          0.20834800601 -0.42482098937 -0.056020401418 0.1283659935 -0.029174299911 -0.034764099866
          -4.9169798331e-06 -0.42502000928 -5.0135200581e-05 -0.16839300096 -0.30248099566 0.045229099691
          0.41670298576 -0.42425298691 -0.11238899827 -0.12838600576 -0.029156100005 0.034639399499
          -0.33648398519 -0.17979200184 0.090827301145 -0.41671299934 -0.424266994 0.11222299933
          0.33774599433 -0.66965198517 -0.090888500214 -0.13257299364 -0.62466400862 0.03638330102
          0.066250197589 -0.42073601484 -0.018204299733 0.13255399466 -0.62466800213 -0.036500699818
          -0.17345899343 -0.34282401204 0.047481399029 -0.34697699547 -0.46876201034 0.095388896763
          0.066200599074 -0.013030800037 -0.01820760034 0.34665900469 0.035191901028 -0.095431797206
          0.21433399618 -0.21680699289 -0.058802198619 0.13236799836 0.19074499607 -0.036509301513
          -1.0722399566e-05 -0.21685299277 -5.0722901506e-05 -0.173379004 -0.09084880352 0.047479100525
          0.42867699265 -0.2166749984 -0.11801999807 -0.13239200413 0.19075000286 0.03637740016
          -0.34667599201 0.035192001611 0.095387302339 -0.42869800329 -0.21667799354 0.11784300208
          0.34695199132 -0.46876099706 -0.095425099134 -0.13574400544 -0.42299601436 0.035872198641
          0.067897498608 -0.21396100521 -0.017945300788 0.13570100069 -0.42298400402 -0.03599030152
          -0.17789100111 -0.13416999578 0.046803299338 -0.35558098555 -0.26361501217 0.094052799046
          0.068030096591 0.20449499786 -0.017949799076 0.35632899404 0.25362598896 -0.094090901315
          0.21997700632 -0.0049371398054 -0.057965099812 0.13619199395 0.4139289856 -0.03599889949
          -1.844739927e-05 -0.004813880194 -5.1171598898e-05 -0.17810599506 0.12445099652 0.046800900251
          0.43997299671 -0.0052832202055 -0.11636699736 -0.13622200489 0.41391700506 0.035863399506
          -0.3563759923 0.25362500548 0.09404720366 -0.44000899792 -0.005275350064 0.11618500203
          0.35555499792 -0.26361399889 -0.094085596502 -0.13869899511 -0.23037800193 0.033002901822
          0.06943590194 -0.016567299142 -0.016513699666 0.13863000274 -0.23035000265 -0.033120598644
          -0.1820410043 0.064976602793 0.043053999543 -0.363620013 -0.067774198949 0.086538597941
          0.069751299918 0.41197401285 -0.016518099234 0.36543300748 0.46193298697 -0.086580201983
          0.22527000308 0.19721800089 -0.053331300616 0.13979899883 0.62673199177 -0.033129598945
          -2.7110700103e-05 0.19751100242 -5.1618400903e-05 -0.18255199492 0.32982900739 0.043051101267
          0.45056700706 0.19639199972 -0.10707999766 -0.13983799517 0.62670397758 0.032993800938
          -0.36551201344 0.4619320035 0.086533002555 -0.45062199235 0.1964109987 0.10689999908
          0.36359000206 -0.067772500217 -0.086574703455 -0.14145900309 -0.060444999486 0.027868200094
          0.070871300995 0.157821998 -0.013954900205 0.14136500657 -0.060403000563 -0.027984799817
          -0.18591299653 0.24100099504 0.036352600902 -0.3711220026 0.10517200083 0.073090001941
          0.071354702115 0.5957660079 -0.013958900236 0.37391498685 0.64650297165 -0.073140002787
          0.23020499945 0.37604999542 -0.045049101114 0.14315800369 0.81548500061 -0.027992900461
          -3.5378001485e-05 0.37649801373 -5.2026200137e-05 -0.18669499457 0.51166599989 0.036350201815
          0.4604460001 0.37478199601 -0.090457499027 -0.14320500195 0.81544297934 0.027860200033
          -0.37402299047 0.64649999142 0.073085099459 -0.46051698923 0.37481200695 0.090286701918
          0.37108901143 0.10517399758 -0.073135100305 -0.14404200017 0.074267402291 0.020745199174
          0.072209000587 0.29668301344 -0.010406600311 0.14392800629 0.074321597815 -0.020860100165
          -0.18951000273 0.38139298558 0.027060000226 -0.37811601162 0.24272799492 0.054432701319
          0.072832502425 0.74333399534 -0.010409600101 0.38172399998 0.79482197762 -0.054495200515
          0.23477600515 0.51904898882 -0.033564098179 0.14623999596 0.96762400866 -0.020866099745
          -4.218200047e-05 0.51962798834 -5.2404000598e-05 -0.19051900506 0.65743899345 0.027058200911
          0.46959498525 0.51741498709 -0.067397400737 -0.14629399776 0.96757000685 0.020739199594
          -0.38185700774 0.79481899738 0.054428998381 -0.46967899799 0.51745301485 0.067240297794
          0.37808001041 0.24273100495 -0.054491501302 -0.14646199346 0.16332900524 0.012066800147
          0.073453202844 0.38959500194 -0.0060840398073 0.14633400738 0.16339200735 -0.012179600075
          -0.19283400476 0.47573599219 0.015739899129 -0.38461899757 0.33449599147 0.031700700521
          0.074177801609 0.8442440033 -0.0060855802149 0.38881799579 0.89647501707 -0.031778901815
          0.23897600174 0.61580401659 -0.019572900608 0.14902099967 1.0726900101 -0.012182700448
          -4.6624201786e-05 0.61647701263 -5.2749299357e-05 -0.19400599599 0.75672399998 0.015738900751
          0.47799900174 0.61390399933 -0.039301000535 -0.14907999337 1.0726300478 0.012063600123
          -0.38896799088 0.89647197723 0.031698800623 -0.47809201479 0.61394900084 0.039161801338
          0.38458201289 0.3344990015 -0.031776998192 -0.14872699976 0.19921299815 0.0023819298949
          0.074606001377 0.42903700471 -0.0012603199575 0.1485940069 0.19928100705 -0.0024923901074
          -0.19588500261 0.51651400328 0.0031073000282 -0.3906430006 0.37296900153 0.0063326801173
          0.075385697186 0.89095902443 -0.0012601499911 0.39516600966 0.94394099712 -0.0064282501116
          0.24279899895 0.65879797935 -0.0039595500566 0.15148599446 1.1231299639 -0.0024920799769
          -4.8049598263e-05 0.65952199697 -5.3062398365e-05 -0.19714599848 0.80199801922 0.0031073999126
          0.48564600945 0.65675401688 -0.0079463897273 -0.15154400468 1.123059988 0.0023822400253
          -0.3953230083 0.94393700361 0.0063328701071 -0.48574200273 0.65680098534 0.0078272297978
          0.39060801268 0.37297299504 -0.0064284401014 -0.15083999932 0.17784200609 -0.0076926499605
          0.075667597353 0.41092699766 0.003757819999 0.15071000159 0.17791000009 0.0075844600797
          -0.19866000116 0.49964800477 -0.010034400038 -0.39618700743 0.35407599807 -0.020055899397
          0.076453097165 0.87938898802 0.003759830026 0.40074700117 0.93313199282 0.01994260028
          0.24623900652 0.64394897223 0.012283099815 0.15362299979 1.1148400307 0.0075884801336
          -4.6061799367e-05 0.64467799664 -5.3343101172e-05 -0.1999309957 0.78917402029 -0.010033099912
          0.4925250113 0.64188998938 0.024669600651 -0.1536770016 1.1147700548 -0.0076886299066
          -0.40090098977 0.93312799931 -0.020053399727 -0.49261701107 0.64193797112 -0.024768199772
          0.39615601301 0.35407999158 0.01994010061 -0.15279400349 0.098821699619 -0.017526799813
          0.076635800302 0.3348659873 0.0086569301784 0.15267799795 0.098886400461 0.017420500517
          -0.20115299523 0.42473500967 -0.022864300758 -0.40123900771 0.27741599083 -0.045813798904
          0.077378898859 0.80912399292 0.0086607802659 0.40555900335 0.86363399029 0.045684099197
          0.24929200113 0.57085198164 0.028140500188 0.15543299913 1.0473999977 0.017428200692
          -4.0533101128e-05 0.57154101133 -5.3591098549e-05 -0.20235599577 0.71784198284 -0.022861899808
          0.49862399697 0.56890398264 0.056506201625 -0.15547800064 1.0473400354 -0.017519099638
          -0.40569698811 0.86363101006 -0.045809101313 -0.49870499969 0.56894999743 -0.056585498154
          0.40121600032 0.27742001414 0.045679301023 -0.15457700193 -0.034634798765 -0.026533100754
          0.077506296337 0.20405499637 0.013144900091 0.1544830054 -0.034577600658 0.026427999139
          -0.20335699618 0.29496699572 -0.034617498517 -0.40577399731 0.14617800713 -0.069402098656
          0.078164301813 0.68335402012 0.013150500134 0.4096069932 0.73862797022 0.069258600473
          0.25195100904 0.44269099832 0.042667098343 0.15692199767 0.92401999235 0.026439199224
          -3.1593099266e-05 0.44330200553 -5.3806401411e-05 -0.20442199707 0.59118998051 -0.034614000469
          0.50393301249 0.44096800685 0.085661202669 -0.15695300698 0.92396402359 -0.026521900669
          -0.40972098708 0.73862498999 -0.069395199418 -0.50399702787 0.44100800157 -0.085724398494
          0.40576198697 0.14618100226 0.069251701236 -0.15616899729 -0.21612200141 -0.034221898764
          0.078272499144 0.024879200384 0.016978399828 0.15610399842 -0.21607500315 0.034116998315
          -0.20526100695 0.1167209968 -0.044656701386 -0.40975698829 -0.033268101513 -0.089537702501
          0.078812599182 0.5084580183 0.016985399649 0.4129140079 0.56447100639 0.089384503663
          0.2542130053 0.26583701372 0.055075298995 0.15810500085 0.75108200312 0.034131199121
          -1.9597500795e-05 0.26633900404 -5.3988798754e-05 -0.20613500476 0.41558900476 -0.044652301818
          0.50844502449 0.26442399621 0.11054900289 -0.15811799467 0.75103497505 -0.034207701683
          -0.41299501061 0.56446802616 -0.089529000223 -0.50848400593 0.26445698738 -0.11060100049
          0.40975999832 -0.033265199512 0.089375801384 -0.15754400194 -0.43675801158 -0.040251698345
          0.078925997019 -0.19380100071 0.019987799227 0.15751500428 -0.43672400713 0.040145799518
          -0.20685100555 -0.10115800053 -0.052538000047 -0.41314199567 -0.25209000707 -0.10532599688
          0.0793287009 0.29328799248 0.019996000454 0.41551199555 0.34998801351 0.10516799986
          0.25607299805 0.049123700708 0.064816303551 0.15900500119 0.53745400906 0.040162298828
          -5.0781100072e-06 0.049497801811 -5.413819963e-05 -0.20750199258 0.19987900555 -0.052532900125
          0.51215100288 0.048072498292 0.13006199896 -0.15899600089 0.5374199748 -0.040235199034
          -0.41555300355 0.34998598695 -0.10531499982 -0.51216101646 0.048096999526 -0.13010899723
          0.41316300631 -0.25208699703 0.10515800118 -0.15867200494 -0.68617802858 -0.044472098351
          0.079457402229 -0.44164699316 0.02209899947 0.15868200362 -0.68615597486 0.044363498688
          -0.20811200142 -0.3483479917 -0.058066800237 -0.4158770144 -0.49997898936 -0.11637099832
          0.07971920073 0.048178099096 0.022107999772 0.41744399071 0.10548000038 0.11621499807
          0.25752800703 -0.19713799655 0.071649700403 0.15964899957 0.29349499941 0.044381599873
          1.1324100342e-05 -0.19689400494 -5.4254498536e-05 -0.20853599906 -0.045619301498 -0.058061201125
          0.51504397392 -0.19781799614 0.14371399581 -0.15961399674 0.29347300529 -0.044453900307
          -0.41744101048 0.105479002 -0.11636000127 -0.51502197981 -0.1978020072 -0.14376400411
          0.41591998935 -0.49997699261 0.11620400101 -0.15951700509 -0.95374500751 -0.046957798302
          0.079855397344 -0.70805299282 0.023349599913 0.15956799686 -0.95373398066 0.046844899654
          -0.2090280056 -0.61426097155 -0.061342101544 -0.41790100932 -0.76636701822 -0.12286899984
          0.079992502928 -0.21626999974 0.023359099403 0.41876000166 -0.15848900378 0.12272100151
          0.25857499242 -0.46237200499 0.075697802007 0.1600690037 0.029831500724 0.046864099801
          2.894049976e-05 -0.46224498749 -5.4337600886e-05 -0.2092500031 -0.31032299995 -0.061336200684
          0.5171200037 -0.46272200346 0.15174600482 -0.16000500321 0.029820499942 -0.046938698739
          -0.41871199012 -0.15848900378 -0.12285699695 -0.51706200838 -0.46271398664 -0.15180599689
          0.41796898842 -0.76636600494 0.122709997 -0.16004399955 -1.2299300432 -0.048031199723
          0.080109998584 -0.98352301121 0.02390309982 0.1601369977 -1.2299300432 0.047910798341
          -0.20958299935 -0.8894199729 -0.062791801989 -0.41915500164 -1.0417900085 -0.12566100061
          0.0801564008 -0.49056398869 0.023912899196 0.41951298714 -0.43246400356 0.12553100288
          0.25921100378 -0.73711502552 0.077489599586 0.16030199826 -0.24401399493 0.047930400819
          4.7166398872e-05 -0.73707199097 -5.4387099226e-05 -0.20965799689 -0.58475500345 -0.062785699964
          0.5183749795 -0.73722600937 0.15519599617 -0.16020600498 -0.24401700497 -0.048011600971
          -0.41942200065 -0.43246400356 -0.12564900517 -0.5182800293 -0.73722398281 -0.15527899563
          0.4192520082 -1.0417900085 0.12551900744 -0.16021299362 -1.5078300238 -0.048281800002
          0.080208197236 -1.2611700296 0.024042099714 0.16034400463 -1.5078300238 0.04815639928
          -0.20975799859 -1.166960001 -0.063155800104 -0.4195689857 -1.31941998 -0.12630400062
          0.080222398043 -0.76781898737 0.024051999673 0.41976898909 -0.70960700512 0.1261869967
          0.25943499804 -1.0145200491 0.077939502895 0.1603859961 -0.52112400532 0.048176001757
          6.5560401708e-05 -1.0145000219 -5.4404699767e-05 -0.20978100598 -0.86205399036 -0.063149802387
          0.51880502701 -1.014539957 0.15599100292 -0.160255 -0.52112400532 -0.04826220125
          -0.41963800788 -0.7096080184 -0.12629200518 -0.518674016 -1.014539957 -0.15609000623
          0.41970100999 -1.31941998 0.12617500126 -0.10974899679 -1.061439991 0.012902299874
          0.054749600589 -0.91593599319 -0.0063852099702 0.10968700051 -1.0615999699 -0.012959900312
          -0.14315000176 -0.86066997051 0.016392799094 -0.28638899326 -0.94996100664 0.033918701112
          0.054436400533 -0.62870901823 -0.0060694101267 0.28515800834 -0.5943800211 -0.03160019964
          0.17656899989 -0.77170497179 -0.019991200417 0.10877899826 -0.48577800393 -0.011839199811
          -1.3605599634e-05 -0.7718359828 -4.3300300604e-05 -0.14273899794 -0.68317902088 0.015901699662
          0.3531140089 -0.77136099339 -0.040215898305 -0.10885799676 -0.48577401042 0.011832700111
          -0.28523701429 -0.59432798624 0.031498499215 -0.35314199328 -0.77135801315 0.040104400367
          0.28627100587 -0.94983202219 -0.033962801099 0.051215700805 -0.18283300102 -0.0010320399888
          0.26820600033 -0.17408500612 -0.0048563801683 0.10281199962 -0.14379300177 -0.002234919928
          -0.00010433800344 -0.22036799788 -5.660700117e-05 -0.13397400081 -0.19752399623 0.0024012199137
          -0.10292900354 -0.14385999739 0.0022348400671 -0.26827698946 -0.17406399548 0.0047900797799
          -0.11732699722 1.2756199837 -0.020480100065 0.058397401124 1.0948899984 0.010253200307
          0.11726599932 1.2756999731 0.020542299375 -0.12157599628 1.1548899412 -0.02586640045
          0.060586798936 0.96863001585 0.012957500294 0.12154500186 1.154919982 0.025934100151
          -0.15279600024 1.0257899761 -0.026588600129 -0.15849600732 0.89730298519 -0.033826198429
          -0.30636700988 1.1366900206 -0.053040001541 -0.31750398874 1.0115699768 -0.06783760339
          0.05784310028 0.73629701138 0.0099093103781 0.30283600092 0.69293600321 0.051582798362
          0.18823899329 0.91457498074 0.032627999783 0.060169499367 0.59712898731 0.012979900464
          0.31501400471 0.55240499973 0.06796489656 0.1954369992 0.78226900101 0.041889801621
          0.11513400078 0.55831199884 0.019431900233 0.12000499666 0.41191598773 0.026026200503
          -4.1031198634e-05 0.91503697634 2.9415599784e-05 -2.5230699976e-05 0.78265702724 2.7824100471e-05
          -0.15186700225 0.80413997173 -0.026036599651 -0.15783199668 0.66769999266 -0.03386599943
          0.37661498785 0.91342699528 0.064853303134 0.39085999131 0.78110802174 0.083933196962
          -0.11525099725 0.55824702978 -0.019409300759 -0.12007900327 0.41188201308 -0.025953900069
          -0.30285000801 0.69292700291 -0.051476400346 -0.31503400207 0.55239999294 -0.067950800061
          -0.37665700912 0.91343700886 -0.064851798117 -0.39091798663 0.7811409831 -0.083844698966
          0.30623999238 1.1366499662 0.053158398718 0.3174200058 1.0115799904 0.067871801555
          -0.12551100552 1.0019700527 -0.030977100134 0.062577396631 0.80927699804 0.015499399975
          0.12548300624 1.0019999743 0.031055400148 -0.16373500228 0.73554301262 -0.040470600128
          -0.32794600725 0.85395401716 -0.081198096275 0.062225401402 0.42497500777 0.01550010033
          0.32580301166 0.3789280057 0.081253200769 0.20198599994 0.61658000946 0.050096400082
          0.12417200208 0.23338599503 0.031063299626 -2.2605199774e-05 0.61690801382 2.8768099583e-05
          -0.16316300631 0.4980340004 -0.040480598807 0.40399798751 0.61566400528 0.10046599805
          -0.12423499674 0.23335400224 -0.031001100317 -0.3258189857 0.37892699242 -0.081235900521
          -0.40404099226 0.61568397284 -0.10036099702 0.32787400484 0.85395300388 0.081221997738
          -0.12917099893 0.82174801826 -0.0346653983 0.064475797117 0.6232920289 0.01732669957
          0.12915199995 0.82176601887 0.034751601517 -0.16874699295 0.54740202427 -0.045251000673
          -0.33777698874 0.6696370244 -0.09085970372 0.064261399209 0.22699099779 0.017321800813
          0.33647501469 0.17978599668 0.090850502253 0.2083349973 0.42481198907 0.055997800082
          0.12835399806 0.029171200469 0.034736201167 -1.4898500012e-05 0.4250099957 2.8864500564e-05
          -0.16840100288 0.30247300863 -0.045251101255 0.41668599844 0.42424300313 0.11236499995
          -0.12839399278 0.029152700678 -0.034665599465 -0.3364880085 0.17978599668 -0.090850099921
          -0.41671600938 0.42425701022 -0.11224199831 0.33772999048 0.66963899136 0.09086869657
          -0.13256800175 0.62465202808 -0.03639639914 0.066252201796 0.42072799802 0.018186099827
          0.13255499303 0.62465697527 0.03648589924 -0.17345300317 0.34281799197 -0.047499399632
          -0.34696799517 0.46875301003 -0.095403499901 0.066202603281 0.013029299676 0.018181899562
          0.34665599465 -0.0351925008 0.095403298736 0.2143329978 0.21680299938 0.058779299259
          0.13236899674 -0.19074399769 0.036479398608 -7.7051699918e-06 0.21684899926 2.9218199415e-05
          -0.17337299883 0.090846002102 -0.047501798719 0.42867299914 0.21667100489 0.11799599975
          -0.13238699734 -0.19074800611 -0.036405600607 -0.34666699171 -0.035192798823 -0.095411196351
          -0.42868900299 0.21667400002 -0.11786200106 0.34694901109 0.46875301003 0.095406003296
          -0.13572399318 0.42298901081 -0.035884700716 0.067914798856 0.21395799518 0.017927300185
          0.13571700454 0.42297801375 0.035976100713 -0.17787000537 0.13416799903 -0.046821400523
          -0.35555699468 0.26361098886 -0.09406709671 0.068047396839 -0.20449200273 0.017923500389
          0.35634100437 -0.25362199545 0.094061903656 0.21999199688 0.0049374401569 0.057941999286
          0.1362079978 -0.41392201185 0.035968098789 -7.7688802946e-08 0.0048141600564 2.9472799724e-05
          -0.17808499932 -0.12444899976 -0.046824101359 0.43998399377 0.0052835298702 0.11634200066
          -0.13620199263 -0.41391000152 -0.035892598331 -0.35635200143 -0.25362101197 -0.094071798027
          -0.43998399377 0.0052756001242 -0.11620400101 0.35556700826 0.26361098886 0.094066798687
          -0.13866299391 0.23037600517 -0.033015798777 0.069468997419 0.016568999738 0.01649549976
          0.13866199553 0.23034900427 0.033105999231 -0.18200400472 -0.064973697066 -0.043072298169
          -0.36357998848 0.067774899304 -0.086553402245 0.069784402847 -0.41196501255 0.016491800547
          0.36546099186 -0.46192398667 0.086551196873 0.2253009975 -0.1972129941 0.053308099508
          0.13983100653 -0.62672001123 0.033098701388 7.1345898505e-06 -0.19750499725 2.9731099858e-05
          -0.18251499534 -0.32982200384 -0.043074499816 0.45059499145 -0.19638699293 0.10705500096
          -0.13980099559 -0.62669199705 -0.033022999763 -0.36547100544 -0.46192198992 -0.086557798088
          -0.45058000088 -0.19640600681 -0.10691999644 0.36361899972 0.067773401737 0.086555801332
          -0.14140799642 0.060447301716 -0.02788249962 0.070918999612 -0.15781599283 0.013935999945
          0.14141200483 0.06040539965 0.027969200164 -0.18586100638 -0.2409940064 -0.036371599883
          -0.37106800079 -0.10516700149 -0.07310590148 0.07140249759 -0.59575301409 0.013933000155
          0.3739579916 -0.64648902416 0.073111899197 0.23025099933 -0.37604001164 0.045026000589
          0.14320400357 -0.81546902657 0.027962999418 1.353459993e-05 -0.37648901343 2.9965700378e-05
          -0.18664300442 -0.51165401936 -0.036373600364 0.46048799157 -0.37477299571 0.090433299541
          -0.14315399528 -0.81542700529 -0.027888599783 -0.37396800518 -0.6464869976 -0.073109701276
          -0.46046099067 -0.37480300665 -0.090306602418 0.37113198638 -0.10516899824 0.073115602136
          -0.14397899806 -0.074261799455 -0.020761599764 0.072268597782 -0.29667401314 0.010386800393
          0.14398600161 -0.074315801263 0.020842699334 -0.18944600224 -0.38138198853 -0.027079999447
          -0.3780489862 -0.242719993 -0.054450299591 0.072892099619 -0.7433180213 0.010384500027
          0.38177898526 -0.79480499029 0.054468400776 0.23483300209 -0.51903599501 0.033541098237
          0.14629800618 -0.96760398149 0.020838100463 1.8649099729e-05 -0.51961499453 3.0183400668e-05
          -0.19045500457 -0.65742301941 -0.027081400156 0.46964800358 -0.51740199327 0.067373499274
          -0.14623099566 -0.96754997969 -0.020766200498 -0.38179001212 -0.79480201006 -0.054453101009
          -0.46961098909 -0.51744002104 -0.067261002958 0.3781349957 -0.24272200465 0.054471299052
          -0.14639100432 -0.16332100332 -0.012086000293 0.073520697653 -0.38958400488 0.0060629597865
          0.14640000463 -0.16338400543 0.012159800157 -0.19276200235 -0.47572299838 -0.015760999173
          -0.38454398513 -0.33448499441 -0.031720601022 0.074245296419 -0.84422498941 0.0060616298579
          0.3888809979 -0.89645600319 0.03175399825 0.2390410006 -0.61578899622 0.019550099969
          0.14908799529 -1.0726699829 0.012157100253 2.2109999918e-05 -0.61646199226 3.0382199839e-05
          -0.19393500686 -0.75670701265 -0.01576180011 0.4780600071 -0.61388897896 0.039277698845
          -0.14900900424 -1.0726000071 -0.012088599615 -0.38889300823 -0.89645200968 -0.031722199172
          -0.47801598907 -0.61393398046 -0.039183199406 0.3846449852 -0.33448898792 0.031755700707
          -0.14865300059 -0.19920499623 -0.0024042599835 0.074676498771 -0.4290240109 0.0012378400424
          0.14866299927 -0.19927200675 0.0024699498899 -0.19581000507 -0.51650100946 -0.0031296999659
          -0.39056500793 -0.37295800447 -0.0063549699262 0.07545620203 -0.89094001055 0.0012375699589
          0.39523100853 -0.94392001629 0.0064055398107 0.24286699295 -0.65878200531 0.0039369598962
          0.15155500174 -1.1231000423 0.0024694099557 2.3645499823e-05 -0.65950602293 3.0562601751e-05
          -0.19707100093 -0.80198001862 -0.0031298599206 0.48570999503 -0.65673798323 0.00792371016
          -0.15147000551 -1.1230399609 -0.002404789906 -0.39524400234 -0.94391697645 -0.00635530008
          -0.48566299677 -0.65678501129 -0.0078495498747 0.39067301154 -0.37296199799 0.0064058699645
          -0.15076899529 -0.17783400416 0.0076669901609 0.075735501945 -0.41091498733 -0.0037817698903
          0.15077699721 -0.17790199816 -0.0076097501442 -0.19858700037 -0.49963501096 0.01001060009
          -0.39611199498 -0.35406500101 0.020030999556 0.076521001756 -0.87936997414 -0.0037809300702
          0.40081000328 -0.93311101198 -0.01996299997 0.24630500376 -0.64393299818 -0.012305400334
          0.15368999541 -1.1148099899 -0.0076080597937 2.3109199901e-05 -0.64466297626 3.0724200769e-05
          -0.19985799491 -0.78915601969 0.01001110021 0.49258598685 -0.64187401533 -0.024691600353
          -0.15360599756 -1.1147400141 0.0076686800458 -0.40082499385 -0.93310701847 0.020031999797
          -0.49254000187 -0.64192199707 0.024744899943 0.39621898532 -0.35406899452 -0.01996400021
          -0.15273100138 -0.098815500736 0.017497800291 0.076695598662 -0.33485600352 -0.008682330139
          0.15273599327 -0.098879799247 -0.017448600382 -0.20108899474 -0.42472299933 0.022839199752
          -0.40117201209 -0.27740699053 0.045786399394 0.077438600361 -0.80910599232 -0.0086804004386
          0.40561300516 -0.86361598969 -0.0457020998 0.24934899807 -0.57083797455 -0.02816249989
          0.15549099445 -1.0473799706 -0.017444700003 2.0486100766e-05 -0.57152801752 3.0867100577e-05
          -0.20229099691 -0.7178260088 0.022840399295 0.4986769855 -0.56888997555 -0.056527599692
          -0.15541499853 -1.0473200083 0.01750170067 -0.40562999249 -0.86361199617 0.045788798481
          -0.49863600731 -0.56893599033 0.056561399251 0.4012709856 -0.27741000056 -0.045704498887
          -0.15452699363 0.034637801349 0.02650110051 0.077552497387 -0.20404799283 -0.013171600178
          0.15452699363 0.034580901265 -0.026458699256 -0.20330600441 -0.29495799541 0.034591201693
          -0.4057199955 -0.14617200196 0.069372400641 0.078210502863 -0.68333899975 -0.013168700039
          0.40964800119 -0.73861199617 -0.069274500012 0.25199401379 -0.44268101454 -0.042688898742
          0.15696699917 -0.92400199175 -0.026452800259 1.5890200302e-05 -0.44329199195 3.0991101085e-05
          -0.2043710053 -0.59117698669 0.034593001008 0.5039730072 -0.44095700979 -0.085681900382
          -0.15690399706 -0.92394500971 0.026506900787 -0.40966698527 -0.73860901594 0.069375999272
          -0.50394099951 -0.44099700451 0.085699498653 0.40580299497 -0.14617499709 -0.069278098643
          -0.15613800287 0.21612100303 0.034187298268 0.07830029726 -0.024876499549 -0.01700630039