<VTKFile type="UnstructuredGrid" version="1.0" byte_order="LittleEndian" header_type="UInt64">
  <UnstructuredGrid>
    <Piece NumberOfPoints="791" NumberOfCells="973">
      <PointData>
        <DataArray type="Float32" Name="ux" format="ascii" RangeMin="-0.0097386697307" RangeMax="0.0096778590232">
          -7.7241507825e-05 0.00017151859356 -0.00043071489199 1.6212832634e-05 0.00010796009883 0.00046317148372
          -0.00013709359337 9.8928860098e-05 0.00087283639004 0.00020049346494 1.6888263417e-05 -0.00083871523384
          -6.3758881879e-05 -0.00016392790712 -0.00087324931519 -0.00021878615371 0.00089951738482 0.00024849348119
          0.00063011713792 1.991307181e-05 -0.00059128308203 0.0013032575371 -0.001263615326 0.0012647929834
          1.4833802197e-05 -0.0012365124421 1.6693415091e-05 0.0031517620664 -0.0015717759961 -0.0032596064266
          0.0030715605244 -0.0015098684235 -0.0031343386509 0.0038390383124 0.0037634880282 0.007996561937
          0.0077902795747 -0.0013743716991 -0.0069231637754 -0.0046595977619 -0.0013376886491 -0.0068246326409
          -0.0045423330739 -0.0025280928239 -0.0024796628859 -4.9299134844e-05 -2.9257347705e-05 0.0035202826839
          0.0034833126701 -0.0092600397766 -0.0090863658115 0.0024382905103 0.0024381296244 0.0068084215745
          0.0067513198592 0.0091639207676 0.00901315175 -0.0080806650221 -0.0078289434314 0.0032073210459
          -0.0016056249151 -0.0033482559957 0.0038493468892 0.0080896774307 -0.0013685243903 -0.0068197017536
          -0.0046659447253 -0.0024711331353 -6.4988620579e-05 0.0034655835479 -0.0092677157372 0.0023532097694
          0.0066715483554 0.0091367457062 -0.0082016242668 0.0032533372287 -0.0016362220049 -0.0034192851745
          0.0038748418447 0.0081888968125 -0.0013739144197 -0.0067902072333 -0.0046992455609 -0.0024473937228
          -7.6841723057e-05 0.0034504742362 -0.0093221636489 0.0023064503912 0.0066161481664 0.0091683641076
          -0.0083222044632 0.0032894343603 -0.0016582548851 -0.0034713831265 0.0038953381591 0.0082623027265
          -0.0013769842917 -0.0067678466439 -0.0047224336304 -0.0024298925418 -8.4414969024e-05 0.0034402352758
          -0.0093602919951 0.0022748901974 0.0065772142261 0.0091911051422 -0.0084095019847 0.0033136755228
          -0.0016713090008 -0.003502987558 0.003912051674 0.0083137117326 -0.0013797777938 -0.0067652235739
          -0.0047405404039 -0.0024234026205 -8.784954116e-05 0.0034403649624 -0.0093933651224 0.0022619673982
          0.0065669296309 0.0092173749581 -0.0084669319913 0.0033269077539 -0.0016760355793 -0.0035149543546
          0.0039257756434 0.0083433920518 -0.0013822590699 -0.006780391559 -0.0047536999919 -0.0024271497969
          -8.7157350208e-05 0.0034504479263 -0.0094202943146 0.0022671979386 0.0065833176486 0.0092456834391
          -0.0084950691089 0.0033294050954 -0.0016725194873 -0.003507839283 0.0039362832904 0.0083520272747
          -0.0013843183406 -0.0068127228878 -0.0047618057579 -0.0024407331366 -8.2480684796e-05 0.0034699779935
          -0.0094411959872 0.0022898491006 0.0066254399717 0.0092759560794 -0.0084947822616 0.0033219966572
          -0.0016612820327 -0.0034828914795 0.0039439168759 0.0083411047235 -0.0013859005412 -0.0068607674912
          -0.0047651114874 -0.0024633202702 -7.4008625234e-05 0.0034983521327 -0.009456272237 0.0023287425283
          0.0066914292984 0.0093079945073 -0.0084679080173 0.003305808641 -0.0016429525567 -0.0034417817369
          0.0039490233175 0.0083126667887 -0.0013868692331 -0.0069225430489 -0.0047638630494 -0.0024937402923
          -6.1998980527e-05 0.0035346832592 -0.0094657810405 0.0023822304793 0.0067787263542 0.009341545403
          -0.0084169432521 0.0032822948415 -0.0016183352564 -0.0033866371959 0.0039520836435 0.0082693295553
          -0.001387048047 -0.0069954958744 -0.0047583705746 -0.0025304912124 -4.6764231229e-05 0.0035778637975
          -0.0094700241461 0.0024482323788 0.0068840770982 0.0093762846664 -0.0083450544626 0.0032532140613
          -0.0015883769374 -0.0033199915197 0.0039536869153 0.0082142520696 -0.0013862081105 -0.0070765535347
          -0.0047489926219 -0.0025717550889 -2.8664593628e-05 0.0036265805829 -0.0094693619758 0.0025242671836
          0.0070035983808 0.0094118509442 -0.0082560293376 0.0032206079923 -0.0015541488538 -0.0032447413541
          0.0039545297623 0.0081510832533 -0.0013840683969 -0.0071621639654 -0.0047361231409 -0.0026154231746
          -8.0957470345e-06 0.0036793423351 -0.0094641847536 0.0026075006463 0.0071328412741 0.0094478419051
          -0.0081542059779 0.0031867753714 -0.0015168213286 -0.0031640909147 0.0039554126561 0.0080839144066
          -0.0013802921167 -0.0072483457625 -0.0047201784328 -0.0026591229253 1.4524815015e-05 0.0037345110904
          -0.0094549087808 0.002694797935 0.0072668739595 0.0094838375226 -0.0080443928018 0.0031542431097
          -0.0014776347671 -0.003081491217 0.0039572333917 0.008017222397 -0.0013744845055 -0.0073307463899
          -0.0047015799209 -0.0027002478018 3.8773523556e-05 0.0037903392222 -0.0094419540837 0.002782784868
          0.0074003697373 0.0095194103196 -0.007931788452 0.0031257399824 -0.0014378749765 -0.0030005767476
          0.0039609931409 0.0079558063298 -0.0013661836274 -0.0074046947993 -0.0046807397157 -0.0027359845117
          6.4237996412e-05 0.0038449992426 -0.0094257313758 0.0028679079842 0.0075276978314 0.0095541449264
          -0.0078218830749 0.0031041512266 -0.0013988201972 -0.0029250842053 0.0039677573368 0.0079047121108
          -0.0013548756251 -0.0074652833864 -0.0046580396593 -0.0027633593418 9.0535570052e-05 0.003896658076
          -0.0094066234306 0.0029465164989 0.0076430444606 0.0095876567066 -0.0077203465626 0.0030925848987
          -0.0013617929071 -0.0028588746209 0.003978793975 0.0078693144023 -0.0013399039162 -0.0075072767213
          -0.0046338122338 -0.0027791752946 0.00011733272549 0.0039433799684 -0.0093849608675 0.0030148362275
          0.0077403653413 0.0096196085215 -0.0076330802403 0.0030939979479 -0.0013278535334 -0.0028055221774
          0.0039951256476 0.0078547066078 -0.0013207361335 -0.0075257280841 -0.0046083219349 -0.0027803848498
          0.00014436518541 0.0039836117066 -0.0093610100448 0.0030693828594 0.0078140376136 0.0096497340128
          -0.0075655570254 0.0031121328939 -0.001298408024 -0.0027692713775 0.0040185716935 0.007867298089
          -0.0012963140616 -0.0075144735165 -0.0045817424543 -0.0027630897239 0.00017145859601 0.0040151854046
          -0.0093349432573 0.0031060662586 0.0078572984785 0.0096778590232 -0.0075242891908 0.0018866223982
          -0.00093213078799 -0.0018802499399 0.0024175571743 0.0049461093731 -0.00088798144134 -0.004638271872
          -0.002949913498 -0.001731585362 -3.4971249079e-06 0.0023334273137 -0.0059473318979 0.001711400575
          0.0046301176772 0.0059266593307 -0.0049380827695 -0.00017394407769 -0.0010991644813 -0.00045673557906
          1.3935176867e-05 0.00049368577311 0.000454136607 0.0011482052505 -0.0030377036892 0.0015467491467
          0.0031720693223 -0.0031152064912 0.0016111604637 0.0032999352552 -0.0037299976684 -0.003803082509
          -0.0077597689815 -0.0079629588872 0.0013745729811 0.0068654790521 0.0045812912285 0.001413734979
          0.0069664572366 0.0047010770068 0.0025174452458 0.0025683655404 6.5324980824e-05 8.7709988293e-05
          -0.0034495694563 -0.003484379733 0.0091279428452 0.0093046668917 -0.0024040362332 -0.0024017551914
          -0.0067204786465 -0.0067748664878 -0.008983835578 -0.0091314651072 0.0078692669049 0.0081242127344
          -0.0031688676681 0.0016469719121 0.0033905431628 -0.0038114211056 -0.0080542797223 0.0014098571846
          0.0068650445901 0.004709423054 0.0025133709423 0.00010539769573 -0.0034276237711 0.0093142585829
          -0.0023147081956 -0.0066360547207 -0.0091024469584 0.0082469852641 -0.0032137320377 0.0016787262866
          0.0034627271816 -0.0038357756566 -0.0081523293629 0.0014164074091 0.0068366993219 0.0047438819893
          0.002490791725 0.00011839974468 -0.0034113919828 0.0093698985875 -0.0022668021265 -0.0065795127302
          -0.0091329105198 0.0083687817678 -0.0032495958731 0.0017010087613 0.003515078919 -0.0038560337853
          -0.0082255164161 0.0014197234996 0.0068146060221 0.0047673303634 0.0024735364132 0.00012621993665
          -0.0034009090159 0.0094082960859 -0.0022350056097 -0.006540347822 -0.0091554271057 0.0084563372657
          -0.0032745876815 0.0017133228248 0.0035459443461 -0.0038734977134 -0.0082776816562 0.0014217777643
          0.0068112541921 0.0047847046517 0.0024663084187 0.00012891204096 -0.0034017898142 0.0094406483695
          -0.0022228320595 -0.0065308194607 -0.0091824568808 0.0085130436346 -0.0032896043267 0.001716274186
          0.003556138603 -0.0038890074939 -0.0083091557026 0.0014224833576 0.0068246601149 0.0047960956581
          0.0024682825897 0.00012644178059 -0.0034136581235 0.0094658182934 -0.002229847014 -0.0065490007401
          -0.0092125609517 0.0085394168273 -0.00329493545 0.001709930948 0.00354619883 -0.003902351018
          -0.008320633322 0.0014217161806 0.0068541760556 0.0048013799824 0.0024790428579 0.00011893558258
          -0.0034360249992 0.0094839064404 -0.002255332889 -0.0065939673223 -0.0092456806451 0.0085363136604
          -0.0032913957257 0.0016948293196 0.0035173895303 -0.0039138575085 -0.008313588798 0.0014194346732
          0.0068983682431 0.0048008263111 0.0024977708235 0.00010659666441 -0.0034682729747 0.0094951307401
          -0.0022980975918 -0.0066638384014 -0.0092816036195 0.0085055828094 -0.0032800701447 0.0016716399696
          0.0034714229405 -0.0039238315076 -0.0082900216803 0.0014155445388 0.0069552953355 0.004794722423
          0.0025233374909 8.9724817371e-05 -0.0035094728228 0.0094997882843 -0.0023564512376 -0.006756012328
          -0.0093200327829 0.0084497639909 -0.0032623456791 0.0016412342666 0.0034104930237 -0.0039326869883
          -0.0082524837926 0.0014099362306 0.0070224707015 0.0047834445722 0.0025543074589 6.8699373514e-05
          -0.0035584503785 0.0094982506707 -0.0024282464292 -0.0068671689369 -0.0093605788425 0.0083720907569
          -0.0032398931216 0.00160464691 0.0033372212201 -0.0039409254678 -0.0082040429115 0.0014024686534
          0.0070969099179 0.0047674402595 0.0025889503304 4.3968535465e-05 -0.0036138042342 0.0094909649342
          -0.0025109143462 -0.0069933352061 -0.0094027919695 0.0082764392719 -0.0032146500889 0.0015630539274
          0.0032546091825 -0.0039491383359 -0.0081482455134 0.0013929654378 0.0071751647629 0.0047472077422
          0.0026252618991 1.6032690837e-05 -0.0036739388015 0.0094784265384 -0.0026015157346 -0.0071299588308
          -0.0094461645931 0.0081672519445 -0.0031887991354 0.0015177418245 0.0031659770757 -0.0039580105804
          -0.0080890674144 0.0013812060934 0.0072533711791 0.0047232792713 0.0026609858032 -1.4574281522e-05
          -0.003737099003 0.0094611681998 -0.0026968002785 -0.0072719906457 -0.0094901593402 0.00804945454
          -0.0031647451688 0.0014700734755 0.0030748981517 -0.0039683170617 -0.0080308606848 0.0013669183245
          0.0073272981681 0.0046962001361 0.0026936372742 -4.7306402848e-05 -0.0038014152087 0.0094397328794
          -0.0027932706289 -0.0074139810167 -0.0095342276618 0.0079283667728 -0.0031450947281 0.0014214570401
          0.0029851295985 -0.0039809360169 -0.0079783052206 0.0013497623149 0.0073923966847 0.0046665035188
          0.0027205250226 -8.1628946646e-05 -0.0038649372291 0.0094146542251 -0.0028872517869 -0.0075501771644
          -0.0095778312534 0.0078096035868 -0.0031326182652 0.0013732864754 0.0029005233664 -0.0039968183264
          -0.0079363286495 0.0013293398079 0.0074438750744 0.004634687677 0.0027387908194 -0.0001170434407
          -0.0039257160388 0.0093864304945 -0.0029749770183 -0.0076746493578 -0.0096204672009 0.0076989498921
          -0.0031303216238 0.0013269868214 0.0028250426985 -0.0040171290748 -0.0079102050513 0.0013050966663
          0.0074766003527 0.004601188004 0.0027453398798 -0.0001531138696 -0.0039817132056 0.0093554956838
          -0.003052569693 -0.0077812499367 -0.0096616987139 0.0076024094597 -0.0031410793308 0.0012837004615
          0.0027623446658 -0.0040428084321 -0.0079049440101 0.0012765828287 0.0074857072905 0.0045663504861
          0.0027372059412 -0.00018949374498 -0.0040312940255 0.0093221971765 -0.0031164630782 -0.0078642731532
          -0.0097011765465 0.0075255380943 -0.0031685798895 0.0012448885245 0.0027167275548 -0.0040756217204
          -0.0079269027337 0.0012427943293 0.0074650868773 0.0045304046944 0.0027105454355 -0.00022595388873
          -0.0040722349659 0.0092867640778 -0.0031625130214 -0.0079169031233 -0.0097386697307 0.0074749034829
          -0.0018571404507 0.00096426939126 0.0019132350571 -0.002388630528 -0.0049183899537 0.00092116557062
          0.0046761841513 0.0029846685939 0.0017662800383 3.4656612115e-05 -0.0023043823894 0.0059866979718
          -0.0016804314218 -0.0046010660008 -0.0058987620287 0.0049757566303 0.00021098351863 0.0011383066885
          0.00049428193597 2.2657190129e-05 -0.00045907215099 -0.00042006163858 -0.0011193972314 0.00011433054169
          1.2637280633e-05 -8.9103748905e-05 -4.1257397243e-05 1.2174626136e-05 6.5081061621e-05 1.1546268979e-05
          6.4896252297e-05 1.1041980542e-05 0.00012503360631 -0.0001035969035 1.0490098248e-05 -4.1981948016e-05
          0.00046658475185 8.6046256911e-06 -0.00044980843086 -0.00023998704273 8.0050531324e-06 0.00025602828828
          7.7187150964e-06 0.00025606402778 7.3976780186e-06 0.0004628249153 -0.00044884599629 6.8201097747e-06
          -0.00024124895572 0.00074545416282 5.008530934e-06 -0.00073562469333 -0.00039614585694 4.651954896e-06
          0.00040539781912 4.4000189519e-06 0.00040476993308 4.1516800593e-06 0.00074481754564 -0.00073702668305
          3.7654797325e-06 -0.00039625295904 0.00093688454945 2.3598429379e-06 -0.00093230081256 -0.0005068857572
          2.1264318093e-06 0.00051117152907 1.9818303372e-06 0.00051104085287 1.8285965098e-06 0.00093623186694
          -0.00093291152734 1.5761596615e-06 -0.00050725048641 0.0014377058251 6.6547710276e-07 -0.0014364128001
          -0.00077832175884 5.6556177697e-07 0.00077954953304 4.95315021e-07 0.00077945942758 4.1981678578e-07
          0.0014374317834 -0.0014367437689 2.9362351484e-07 -0.0007784604677 0 0
          0 0 0 0 0 0
          0 0 0 0 0
        </DataArray>
        <DataArray type="Float32" Name="uy" format="ascii" RangeMin="-1.0991994143" RangeMax="0.80359530449">
          0.44758298993 0.47328221798 0.48289737105 0.44203674793 0.44757857919 0.48288857937
          0.4732850492 0.44751939178 0.46739971638 0.45185881853 0.44199886918 0.46740356088
          0.44751930237 0.45185747743 0.46731045842 0.45185256004 0.46730139852 0.45184639096
          0.4981315136 0.46566686034 0.49813175201 0.49809679389 0.49811473489 0.49812147021
          0.46565198898 0.49815467 0.43858578801 0.71400207281 0.709395051 0.71401548386
          0.65146464109 0.64668160677 0.65149253607 0.70754754543 0.6448417902 0.71000522375
          0.64751851559 0.70069289207 0.69927418232 0.70474368334 0.63796639442 0.63656353951
          0.64203256369 0.69664901495 0.63387489319 0.7049279809 0.64218199253 0.70216870308
          0.63944768906 0.70421308279 0.64163392782 0.69663012028 0.63386523724 0.69927591085
          0.63655042648 0.70422595739 0.64164239168 0.71000868082 0.6475058794 0.7619690299
          0.75723391771 0.76199072599 0.75533443689 0.75780582428 0.74847072363 0.74696952105
          0.75248742104 0.74445205927 0.75270754099 0.74991929531 0.7518710494 0.74443238974
          0.74696785212 0.75188523531 0.75780659914 0.79243355989 0.78765714169 0.79245609045
          0.78572845459 0.78817403316 0.77886486053 0.77730953693 0.78285717964 0.77487558126
          0.78310078382 0.78029435873 0.78217023611 0.77485305071 0.77730894089 0.78218632936
          0.78817588091 0.80353164673 0.79871016741 0.80355614424 0.79675787687 0.79919570684
          0.78988879919 0.7882925868 0.79386669397 0.7859120369 0.79412794113 0.79130619764
          0.79313147068 0.78588801622 0.78829151392 0.79314857721 0.79919731617 0.79388201237
          0.78903198242 0.79390728474 0.7870644331 0.78949993849 0.78018182516 0.77856218815
          0.78415828943 0.77620726824 0.78442901373 0.78159487247 0.78339600563 0.7761823535
          0.77856117487 0.78341376781 0.78950166702 0.76273089647 0.75786429644 0.76275634766
          0.75588965416 0.75833112001 0.74898809195 0.74736094475 0.75297415257 0.74500375986
          0.75324696302 0.75040400028 0.75220608711 0.74497866631 0.74735987186 0.75222402811
          0.75833284855 0.70992034674 0.70504981279 0.70994532108 0.70307576656 0.70553052425
          0.6961491704 0.69453024864 0.70015603304 0.6921440959 0.70042365789 0.69757503271
          0.69940263033 0.69211947918 0.69452917576 0.6994202137 0.70553219318 0.63586825132
          0.63100516796 0.63589209318 0.62903904915 0.63151395321 0.62208217382 0.62048590183
          0.62611991167 0.6180460453 0.6263756156 0.62352448702 0.62540012598 0.61802250147
          0.62048488855 0.62541693449 0.63151556253 0.54152709246 0.53668189049 0.54154926538
          0.5347302556 0.5372313261 0.52773845196 0.52617788315 0.53181612492 0.52366226912
          0.53205394745 0.52920299768 0.53114688396 0.52364039421 0.52617692947 0.53116250038
          0.53723281622 0.42832767963 0.42350941896 0.42834770679 0.42157784104 0.42411011457
          0.41454744339 0.41303363442 0.41867253184 0.41042366624 0.41888731718 0.41603910923
          0.41806820035 0.4104039371 0.41303277016 0.41808229685 0.42411145568 0.29810708761
          0.2933229804 0.29812455177 0.29141592979 0.29398328066 0.28434440494 0.2828861475
          0.28852260113 0.28016734123 0.28871035576 0.28586694598 0.28799453378 0.28015008569
          0.28288540244 0.28800684214 0.29398444295 0.15302196145 0.14827735722 0.15303663909
          0.14639802277 0.14900289476 0.13928411901 0.13788750768 0.14351901412 0.13505013287
          0.14367698133 0.14083996415 0.14307497442 0.13503564894 0.13788685203 0.14308531582
          0.14900387824 -0.0045506823808 -0.0092526944354 -0.0045389258303 -0.011102540419 -0.0084592262283
          -0.018258623779 -0.01959047839 -0.013965751976 -0.022550823167 -0.013838936575 -0.016668461263
          -0.014321932569 -0.022562418133 -0.019591009244 -0.014313631691 -0.0084584327415 -0.17212440073
          -0.17678309977 -0.17211554945 -0.17860324681 -0.17592227459 -0.18579977751 -0.18706697226
          -0.18145017326 -0.19014894962 -0.18135434389 -0.18417583406 -0.1817189157 -0.1901576668
          -0.18706737459 -0.18171265721 -0.17592166364 -0.34722366929 -0.35184085369 -0.34721755981
          -0.35363277793 -0.35091668367 -0.36086633801 -0.3620724082 -0.35646390915 -0.36526855826
          -0.35639730096 -0.3592107892 -0.35665020347 -0.36527454853 -0.36207270622 -0.35664588213
          -0.35091623664 -0.5275118351 -0.53209197521 -0.52750813961 -0.5338588357 -0.53111201525
          -0.54112434387 -0.54227632284 -0.53667575121 -0.54557281733 -0.53663492203 -0.5394411087
          -0.53678935766 -0.54557645321 -0.54227656126 -0.53678667545 -0.53111177683 -0.71092492342
          -0.71547526121 -0.71092319489 -0.71722203493 -0.71445089579 -0.72451245785 -0.72562134266
          -0.72002750635 -0.72899758816 -0.72000706196 -0.72280728817 -0.72008305788 -0.72899931669
          -0.72562146187 -0.72008174658 -0.71445071697 -0.89580911398 -0.90033954382 -0.89580863714
          -0.90207284689 -0.89928555489 -0.90937972069 -0.91045975685 -0.90487056971 -0.91388893127
          -0.9048640132 -0.90765994787 -0.90488749743 -0.91388940811 -0.91045981646 -0.9048871398
          -0.89928555489 -1.0810625553 -1.0855859518 -1.0810625553 -1.0873146057 -1.0845217705
          -1.094627142 -1.0956971645 -1.0901097059 -1.0991448164 -1.0901077986 -1.092902422
          -1.090113163 -1.0991448164 -1.0956972837 -1.0901130438 -1.0845216513 0.5361315012
          0.54676604271 0.53615766764 0.5508582592 0.54414016008 0.56888282299 0.57129305601
          0.55762827396 0.58011579514 0.55769997835 0.56454014778 0.55746489763 0.58011776209
          0.57127970457 0.5574606657 0.54410463572 0.52231580019 0.52819043398 0.54634290934
          0.49809807539 0.51313525438 0.54635208845 0.52820307016 0.6514955163 0.64670902491
          0.65152317286 0.71403592825 0.70942616463 0.7140494585 0.6448687315 0.70757746696
          0.64754712582 0.71003693342 0.63798838854 0.63658481836 0.6420571804 0.70071816444
          0.69929867983 0.70477187634 0.63389390707 0.69667136669 0.64220678806 0.7049561739
          0.63947093487 0.70219504833 0.64165759087 0.7042414546 0.63388425112 0.69665259123
          0.63657152653 0.69930058718 0.64166879654 0.70425379276 0.64753395319 0.7100404501
          0.76200562716 0.75726753473 0.76202732325 0.75536692142 0.75784009695 0.748498559
          0.74699664116 0.75251811743 0.74447697401 0.75273823738 0.74994826317 0.75190168619
          0.74445730448 0.74699503183 0.75191599131 0.75784099102 0.79247188568 0.78769254684
          0.79249447584 0.78576272726 0.78821009398 0.77889436483 0.77733832598 0.78288966417
          0.77490216494 0.78313320875 0.78032505512 0.78220266104 0.77487969398 0.77733778954
          0.78221875429 0.78821194172 0.80357074738 0.79874634743 0.80359530449 0.7967929244
          0.79923254251 0.78991913795 0.78832221031 0.79389995337 0.78593945503 0.79416120052
          0.7913376689 0.79316467047 0.78591549397 0.78832119703 0.79318183661 0.79923421144
          0.7939209938 0.78906804323 0.79394632578 0.78709936142 0.78953659534 0.78021198511
          0.77859163284 0.78419137001 0.77623450756 0.78446209431 0.78162616491 0.7834290266
          0.77620965242 0.77859067917 0.78344684839 0.78953844309 0.76276868582 0.75789922476
          0.76279425621 0.75592339039 0.75836664438 0.74901711941 0.74738919735 0.75300604105
          0.74502980709 0.75327891111 0.75043410063 0.7522379756 0.74500477314 0.74738818407
          0.7522559166 0.75836849213 0.70995604992 0.70508253574 0.70998108387 0.70310735703
          0.70556390285 0.69617599249 0.69455629587 0.70018577576 0.69216793776 0.70045340061
          0.69760298729 0.69943231344 0.69214338064 0.69455528259 0.69944989681 0.70556563139
          0.63590079546 0.63103479147 0.63592469692 0.62906754017 0.63154417276 0.62210583687
          0.62050884962 0.62614655495 0.61806672812 0.62640225887 0.62354928255 0.62542670965
          0.61804330349 0.62050789595 0.62544351816 0.63154584169 0.54155558348 0.53670746088
          0.54157781601 0.53475469351 0.53725755215 0.52775806189 0.52619671822 0.53183871508
          0.52367889881 0.53207653761 0.5292237401 0.53116941452 0.52365708351 0.52619588375
          0.53118503094 0.53725910187 0.42835131288 0.42353010178 0.42837136984 0.42159733176
          0.42413142323 0.41456213593 0.41304758191 0.41869017482 0.41043537855 0.41890498996
          0.41605493426 0.41808584332 0.41041567922 0.41304677725 0.41809993982 0.42413282394
          0.29812502861 0.29333797097 0.29814255238 0.29142975807 0.29399892688 0.28435340524
          0.28289443254 0.28853458166 0.2801733613 0.28872233629 0.28587707877 0.28800648451
          0.28015616536 0.28289371729 0.28801879287 0.29400014877 0.15303356946 0.14828598499
          0.1530482769 0.14640548825 0.14901219308 0.13928677142 0.13788941503 0.14352464676
          0.13504979014 0.14368262887 0.14084374905 0.14308057725 0.13503535092 0.13788881898
          0.14309093356 0.14901322126 -0.0045459726825 -0.009250969626 -0.0045341909863 -0.011101973243
          -0.008456831798 -0.018262889236 -0.01959547773 -0.013967031613 -0.022558080032 -0.013840209693
          -0.016671581194 -0.01432322897 -0.022569648921 -0.019595967606 -0.014314926229 -0.0084559982643
          -0.17212705314 -0.17678873241 -0.17211818695 -0.17861004174 -0.17592722178 -0.18581141531
          -0.18707932532 -0.18145881593 -0.19016356766 -0.18136298656 -0.18418630958 -0.18172757328
          -0.19017226994 -0.18707971275 -0.18172129989 -0.17592659593 -0.3472340107 -0.35185420513
          -0.34722790122 -0.35364726186 -0.35092931986 -0.36088567972 -0.36209246516 -0.35648027062
          -0.3652908802 -0.35641363263 -0.35922896862 -0.35666656494 -0.36529687047 -0.36209273338
          -0.3566622138 -0.35092887282 -0.52753007412 -0.53211325407 -0.52752637863 -0.53388124704
          -0.53113257885 -0.54115158319 -0.54230433702 -0.5367000699 -0.54560303688 -0.53665918112
          -0.53946721554 -0.53681361675 -0.54560667276 -0.54230451584 -0.53681099415 -0.53113228083
          -0.71095120907 -0.7155045867 -0.71094948053 -0.7172524929 -0.71447950602 -0.7245478034
          -0.72565740347 -0.72005987167 -0.72903597355 -0.72003942728 -0.72284150124 -0.7201153636
          -0.72903764248 -0.72565752268 -0.7201141119 -0.7144793272 -0.89584356546 -0.90037703514
          -0.89584308863 -0.9021114707 -0.89932233095 -0.90942317247 -0.9105039835 -0.90491104126
          -0.9139354229 -0.90490448475 -0.90770226717 -0.90492796898 -0.91393584013 -0.9105039835
          -0.90492761135 -0.89932227135 -1.081105113 -1.085631609 -1.081105113 -1.087361455
          -1.0845667124 -1.0946787596 -1.0957494974 -1.0901583433 -1.0991994143 -1.0901563168
          -1.0929528475 -1.0901618004 -1.0991994143 -1.0957496166 -1.090161562 -1.0845665932
          0.53615063429 0.54678559303 0.53617751598 0.55087465048 0.54415756464 0.56889766455
          0.57130795717 0.55764579773 0.58012956381 0.55771690607 0.56455492973 0.55748653412
          0.58013176918 0.57129490376 0.55747061968 0.54412454367 0.52232223749 0.52819365263
          0.54634851217 0.49810096622 0.5131444335 0.54635643959 0.52820777893 0.32788613439
          0.32797595859 0.3278875351 0.3277053237 0.32783687115 0.32770234346 0.32780995965
          0.32769066095 0.32783031464 0.32789376378 0.32789340615 0.32798403502 0.327688694
          0.22127832472 0.2214948684 0.2212793678 0.22078192234 0.22103446722 0.22078040242
          0.22094683349 0.22078493237 0.2210355103 0.22127754986 0.22127622366 0.22149281204
          0.22078315914 0.12957952917 0.1299571991 0.12958018482 0.12874706089 0.12917229533
          0.1287458837 0.12902747095 0.12874662876 0.12917228043 0.12958085537 0.12958012521
          0.12995776534 0.12874542177 0.059627313167 0.060077961534 0.059627719223 0.058568719774
          0.059127762914 0.058568011969 0.058937411755 0.058568824083 0.059127740562 0.059627667069
          0.059627130628 0.060077890754 0.058568038046 0.016357365996 0.017107317224 0.016357490793
          0.014729527757 0.015517763793 0.014729227871 0.015222472139 0.014729591087 0.015517788939
          0.016357634217 0.01635732688 0.01710736379 0.014729180373 0 0
          0 0 0 0 0 0
          0 0 0 0 0
        </DataArray>
        <DataArray type="Float32" Name="uz" format="ascii" RangeMin="-0.10416261852" RangeMax="0.10423930734">
          0.015150979161 -0.0083888368681 0.021836860105 0.018896298483 0.015148775652 0.021837696433
          -0.0083992546424 -0.015152116306 -0.047978445888 -0.039710052311 -0.018912605941 -0.04796840623
          -0.015158564784 -0.039708729833 0.048023633659 0.039697546512 0.048028551042 0.039693433791
          -0.026745947078 -0.048885386437 -0.026738338172 -0.053594529629 -0.053580269217 0.053539540619
          0.048907246441 0.053526621312 1.9364659238e-05 0.0096246264875 -0.004741883371 -0.0095419101417
          0.011839956045 -0.0058458349667 -0.011762910523 0.012550839223 0.015471924096 0.025130107999
          0.031065162271 -0.0047464324161 -0.02503830567 -0.015433423221 -0.0059345746413 -0.031324923038
          -0.019108977169 -0.0095451902598 -0.012030715123 3.3674336009e-05 3.3523305319e-05 0.012537252158
          0.015590766445 -0.030984053388 -0.038481093943 0.0095913903788 0.012060465291 0.025102894753
          0.031404871494 0.031037714332 0.038513321429 -0.025041880086 -0.030945634469 0.0068236929365
          -0.0033422205597 -0.0067462543957 0.0088830459863 0.017803994939 -0.0033488010522 -0.017715293914
          -0.010900465772 -0.0067560938187 3.3568045183e-05 0.0088768973947 -0.021916739643 0.0068039344624
          0.017784463242 0.021970421076 -0.017715996131 0.00362564018 -0.0017499092501 -0.0035507066641
          0.0047115078196 0.0094355354086 -0.0017551896162 -0.0093640284613 -0.0057467431761 -0.0035630350467
          3.3681826608e-05 0.0047085667029 -0.011586588807 0.003617022885 0.0094328382984 0.011644376442
          -0.0093543734401 0.00014464800188 -1.378894649e-05 -7.330445078e-05 0.00016291723296 0.00032325962093
          -1.6849508029e-05 -0.00025027859374 -0.00012495939154 -7.885973173e-05 3.3702741348e-05 0.00016124178364
          -0.00032144211582 0.00013851372933 0.00031894631684 0.00038269095239 -0.0002471068874 -0.0035218507983
          0.0018143736525 0.00359001779 -0.0046268366277 -0.0092743132263 0.0018137017032 0.0093439323828
          0.0057948930189 0.0035885323305 3.3750671719e-05 -0.004627390299 0.011539667845 -0.0035233369563
          -0.0092751709744 -0.011474815197 0.0093448301777 -0.0072678299621 0.0036825696006 0.0073327687569
          -0.0095211416483 -0.019079815596 0.0036839740351 0.019146760926 0.011843763292 0.0073356241919
          3.3786905988e-05 -0.0095202261582 0.023658400401 -0.00726494845 -0.01907803677 -0.023590069264
          0.019145013765 -0.010991459712 0.005539782811 0.011053308845 -0.014386638999 -0.028826931491
          0.0055432925001 0.028891365975 0.017857162282 0.011060335673 3.3822780097e-05 -0.014384482987
          0.035705000162 -0.010984439403 -0.028822595254 -0.035633374006 0.028887014836 -0.014596479014