<VTKFile type="UnstructuredGrid" version="1.0" byte_order="LittleEndian" header_type="UInt64">
  <UnstructuredGrid>
    <Piece NumberOfPoints="791" NumberOfCells="973">
      <PointData>
        <DataArray type="Float32" Name="ux" format="ascii" RangeMin="-0.737182796" RangeMax="1.0548699934e-11">
          -0.065840251744 -0.071704551578 -0.074030950665 -0.064753010869 -0.065851077437 -0.073955468833
          -0.071763835847 -0.065833501518 -0.07023049891 -0.066841892898 -0.064771987498 -0.070276081562
          -0.065877519548 -0.066898696125 -0.070243932307 -0.066882297397 -0.070252858102 -0.066832900047
          -0.077682122588 -0.069819077849 -0.077768743038 -0.077667571604 -0.077740706503 -0.077647686005
          -0.069789379835 -0.077737234533 -0.064052708447 -0.14436356723 -0.14469504356 -0.14486689866
          -0.11790548265 -0.11826712638 -0.11841236055 -0.14425718784 -0.11783198267 -0.14392691851
          -0.11748536676 -0.14467763901 -0.14508880675 -0.14491042495 -0.11827082932 -0.11867261678
          -0.11849147081 -0.14480066299 -0.11840682477 -0.14456269145 -0.11814815551 -0.14427997172
          -0.11787969619 -0.14523945749 -0.11880921572 -0.14441278577 -0.11804247648 -0.14401496947
          -0.11764323711 -0.14379955828 -0.11739306152 -0.14518807828 -0.11873795837 -0.17195172608
          -0.1722882092 -0.1724473685 -0.1718558073 -0.17152784765 -0.17227596045 -0.17269049585
          -0.17250651121 -0.1723998934 -0.17216044664 -0.17188152671 -0.172834903 -0.17201057076
          -0.17161975801 -0.17140750587 -0.17277078331 -0.2006033957 -0.20093734562 -0.20109176636
          -0.20051006973 -0.2001876682 -0.20092694461 -0.20134687424 -0.20115922391 -0.2010486573
          -0.20081228018 -0.20053207874 -0.20149092376 -0.20065353811 -0.20026679337 -0.20006452501
          -0.20141887665 -0.23018948734 -0.23052285612 -0.23067134619 -0.23009948432 -0.22978155315
          -0.23051339388 -0.23093806207 -0.23074696958 -0.23063388467 -0.23039925098 -0.23011897504
          -0.23108068109 -0.23023432493 -0.22985184193 -0.22965718806 -0.2310012877 -0.26059916615
          -0.26093131304 -0.26107490063 -0.26051217318 -0.26019859314 -0.26092338562 -0.26135244966
          -0.26115790009 -0.26104223728 -0.2608101666 -0.2605292201 -0.2614942193 -0.26063832641
          -0.26025953889 -0.26007279754 -0.26140761375 -0.29172629118 -0.29205787182 -0.29219654202
          -0.29164233804 -0.29133281112 -0.29205107689 -0.29248425364 -0.29228669405 -0.29216846824
          -0.29193818569 -0.29165697098 -0.29262456298 -0.29176041484 -0.29138579965 -0.29120615125
          -0.29253166914 -0.32347297668 -0.32380357385 -0.32393744588 -0.32339158654 -0.32308581471
          -0.3237977922 -0.32423484325 -0.32403424382 -0.32391393185 -0.32368567586 -0.32340428233
          -0.32437393069 -0.32350236177 -0.32313126326 -0.32295826077 -0.32427501678 -0.35574755073
          -0.3560770452 -0.35620671511 -0.35566842556 -0.35536634922 -0.35607230663 -0.35651236773
          -0.35630941391 -0.3561873436 -0.35596090555 -0.355679214 -0.35665094852 -0.35577228665
          -0.35540476441 -0.35523787141 -0.35654631257 -0.38846480846 -0.38879352808 -0.38891929388
          -0.38838797808 -0.38808912039 -0.38878962398 -0.38923299313 -0.38902771473 -0.38890346885
          -0.38867875934 -0.38839691877 -0.38937050104 -0.38848561049 -0.38812097907 -0.38796001673
          -0.38926056027 -0.42154696584 -0.42187514901 -0.42199775577 -0.42147222161 -0.42117652297
          -0.42187222838 -0.42231854796 -0.42211088538 -0.42198485136 -0.42176172137 -0.4214797318
          -0.4224550724 -0.42156404257 -0.42120224237 -0.42104628682 -0.4223408103 -0.45492431521
          -0.45525169373 -0.45537132025 -0.45485115051 -0.45455780625 -0.45524972677 -0.45569843054
          -0.45548900962 -0.45536157489 -0.45513960719 -0.45485711098 -0.45583468676 -0.45493808389
          -0.45457848907 -0.45442697406 -0.45571607351 -0.48853370547 -0.48886069655 -0.48897737265
          -0.48846206069 -0.4881708324 -0.48885917664 -0.48931053281 -0.48909923434 -0.48897022009
          -0.48874938488 -0.48846673965 -0.48944628239 -0.48854419589 -0.48818662763 -0.48803934455
          -0.48932385445 -0.52231949568 -0.52264612913 -0.52276057005 -0.5222492218 -0.52195960283
          -0.52264499664 -0.52309888601 -0.52288603783 -0.52275562286 -0.52253568172 -0.52225250006
          -0.52323418856 -0.5223275423 -0.52197140455 -0.52182775736 -0.52310830355 -0.55623322725
          -0.55655997992 -0.55667245388 -0.55616408587 -0.55587619543 -0.55655938387 -0.55701506138
          -0.55680066347 -0.55666911602 -0.55645000935 -0.55616670847 -0.5571500659 -0.55623924732
          -0.55588465929 -0.5557436347 -0.5570217371 -0.59023475647 -0.59056127071 -0.59067255259
          -0.59016638994 -0.58987987041 -0.5905610323 -0.59101837873 -0.59080284834 -0.59067058563
          -0.590452075 -0.59016799927 -0.59115308523 -0.59023886919 -0.58988535404 -0.58974671364
          -0.59102249146 -0.62429124117 -0.6246176362 -0.62472736835 -0.62422370911 -0.62393790483
          -0.62461745739 -0.62507587671 -0.62485975027 -0.62472659349 -0.6245085597 -0.62422466278
          -0.62521028519 -0.62429392338 -0.6239413619 -0.62380456924 -0.62507808208 -0.65837830305
          -0.65870434046 -0.65881329775 -0.65831100941 -0.65802645683 -0.65870428085 -0.65916317701
          -0.65894669294 -0.65881305933 -0.65859562159 -0.65831160545 -0.65929764509 -0.65837967396
          -0.65802806616 -0.65789246559 -0.6591643095 -0.69247877598 -0.69280427694 -0.692912817
          -0.69241154194 -0.6921274662 -0.69280445576 -0.69326370955 -0.69304686785 -0.69291287661
          -0.6926959157 -0.69241183996 -0.69339770079 -0.692479074 -0.69212788343 -0.69199353456
          -0.69326400757 -0.72658205032 -0.72690755129 -0.72701632977 -0.72651517391 -0.72623097897
          -0.72690755129 -0.7273671031 -0.72715014219 -0.72701632977 -0.72679907084 -0.72651517391
          -0.72750115395 -0.72658228874 -0.72623103857 -0.72609704733 -0.72736728191 -0.083423554897
          -0.087770804763 -0.083718113601 -0.089065723121 -0.086307942867 -0.09594001621 -0.097176939249
          -0.09201195091 -0.100118801 -0.09178750217 -0.094127230346 -0.092223741114 -0.099873565137
          -0.096499122679 -0.091299965978 -0.087116882205 -0.083829157054 -0.08524478972 -0.089899480343
          -0.077741093934 -0.081462174654 -0.089876838028 -0.085174433887 -0.11898225546 -0.11858835071
          -0.11846658587 -0.14588029683 -0.1454616338 -0.14536784589 -0.11900705844 -0.14587652683
          -0.11931297928 -0.14620949328 -0.1186273247 -0.11819244921 -0.1183334142 -0.14547073841
          -0.14500500262 -0.1451870352 -0.11860331148 -0.14540910721 -0.11870826781 -0.14556714892
          -0.11898808926 -0.14584584534 -0.11793860048 -0.14478717744 -0.11896721274 -0.14580385387
          -0.11923389137 -0.14609843493 -0.11938265711 -0.14626003802 -0.11803958565 -0.14492309093
          -0.17391343415 -0.17350912094 -0.17340731621 -0.1739230901 -0.17424502969 -0.17352221906
          -0.17306171358 -0.17324055731 -0.17346087098 -0.17361722887 -0.17389769852 -0.1728464663
          -0.17385686934 -0.17415447533 -0.1743093729 -0.17297451198 -0.20301753283 -0.20261964202
          -0.20251755416 -0.20303322375 -0.20335404575 -0.20263080299 -0.20216654241 -0.20235261321
          -0.20256218314 -0.20272834599 -0.20301088691 -0.20196117461 -0.2029659301 -0.20327226818
          -0.20342645049 -0.20209240913 -0.2330608964 -0.23266988993 -0.23256663978 -0.23308335245
          -0.23340068758 -0.23267942667 -0.23221360147 -0.23240436614 -0.23260563612 -0.23277901113
          -0.23306325078 -0.23201593757 -0.23301519454 -0.23332874477 -0.23348130286 -0.23214823008
          -0.26393043995 -0.26354581118 -0.26344123483 -0.26395866275 -0.2642737627 -0.26355415583
          -0.26308637857 -0.26328194141 -0.26347494125 -0.26365569234 -0.26394110918 -0.26289600134
          -0.26389047503 -0.2642108798 -0.26436191797 -0.26302942634 -0.29551970959 -0.29514119029
          -0.29503554106 -0.29555368423 -0.29586625099 -0.29514831305 -0.29467886686 -0.29487878084
          -0.29506456852 -0.29525128007 -0.29553869367 -0.29449555278 -0.29548478127 -0.29581189156
          -0.29596140981 -0.29462996125 -0.32772907615 -0.3273562789 -0.32724931836 -0.3277682364
          -0.32807824016 -0.32736209035 -0.32689112425 -0.32709500194 -0.32727393508 -0.3274666667
          -0.32775509357 -0.32671451569 -0.32769903541 -0.32803210616 -0.3281801343 -0.32684966922
          -0.36046528816 -0.36009788513 -0.35999020934 -0.36050960422 -0.3608174026 -0.36010289192
          -0.3596303761 -0.35983785987 -0.36001056433 -0.36020895839 -0.36049836874 -0.3594596684
          -0.36043986678 -0.36077815294 -0.36092501879 -0.3595956862 -0.39364475012 -0.39328241348
          -0.3931736052 -0.3936933279 -0.39399933815 -0.39328631759 -0.39281269908 -0.39302358031
          -0.39319032431 -0.39339336753 -0.39368414879 -0.392647475 -0.39362373948 -0.39396685362
          -0.39411225915 -0.39278396964 -0.42719206214 -0.42683404684 -0.42672476172 -0.42724448442
          -0.42754843831 -0.42683690786 -0.42636245489 -0.42657616735 -0.42673775554 -0.42694553733
          -0.42723712325 -0.4262021184 -0.427174896 -0.42752215266 -0.42766654491 -0.42633938789
          -0.46103909612 -0.46068489552 -0.46057480574 -0.46109521389 -0.46139726043 -0.46068713069
          -0.46021151543 -0.46042796969 -0.46058502793 -0.46079662442 -0.46108910441 -0.46005541086
          -0.46102526784 -0.46137651801 -0.46152016521 -0.46019360423 -0.49512478709 -0.49477386475
          -0.49466314912 -0.49518406391 -0.49548497796 -0.49477538466 -0.4942984581 -0.49451750517
          -0.49467068911 -0.49488565326 -0.49517917633 -0.49414643645 -0.49511396885 -0.49546900392
          -0.49561163783 -0.49428516626 -0.52939432859 -0.52904587984 -0.52893453836 -0.52945625782
          -0.529756248 -0.52904701233 -0.52856898308 -0.52879017591 -0.52893972397 -0.52915835381
          -0.52945274115 -0.52842020988 -0.52938604355 -0.52974450588 -0.52988624573 -0.52855956554
          -0.56379950047 -0.56345331669 -0.56334125996 -0.56386387348 -0.56416320801 -0.56345391273
          -0.5629748106 -0.56319802999 -0.56334477663 -0.56356608868 -0.56386125088 -0.56282866001
          -0.56379359961 -0.56415492296 -0.56429636478 -0.56296825409 -0.5982992053 -0.59795475006
          -0.59784215689 -0.59836566448 -0.59866440296 -0.59795504808 -0.59747505188 -0.5976998806
          -0.59784412384 -0.59806770086 -0.59836417437 -0.59733062983 -0.5982952714 -0.59865909815
          -0.59880024195 -0.59747081995 -0.63285928965 -0.63251632452 -0.63240325451 -0.63292735815
          -0.633225739 -0.63251632452 -0.63203537464 -0.63226145506 -0.63240414858 -0.63262951374
          -0.63292658329 -0.63189291954 -0.63285690546 -0.63322257996 -0.63336372375 -0.63203334808
          -0.66745322943 -0.66711121798 -0.66699767113 -0.66752260923 -0.66782045364 -0.66711121798
          -0.66662979126 -0.66685646772 -0.66699808836 -0.66722458601 -0.66752201319 -0.66648840904
          -0.66745185852 -0.66781902313 -0.6679597497 -0.66662889719 -0.70206195116 -0.70172047615
          -0.70160669088 -0.7021318078 -0.70242977142 -0.70172023773 -0.70123881102 -0.70146608353
          -0.70160669088 -0.701834023 -0.70213192701 -0.70109778643 -0.70206141472 -0.70242923498
          -0.70257019997 -0.70123851299 -0.73667430878 -0.73633307219 -0.73621916771 -0.73674446344
          -0.73704242706 -0.73633295298 -0.73585116863 -0.73607861996 -0.7362191081 -0.73644679785
          -0.73674434423 -0.73571032286 -0.73667418957 -0.73704230785 -0.737182796 -0.73585110903
          -0.083735994995 -0.087699718773 -0.083429478109 -0.089549519122 -0.087175056338 -0.096000298858
          -0.096705727279 -0.091684788465 -0.10013834387 -0.091924414039 -0.09466034174 -0.091423362494
          -0.10036975145 -0.097382754087 -0.092354252934 -0.086365930736 -0.083840370178 -0.085221029818
          -0.089932978153 -0.077740706503 -0.081513062119 -0.08996462822 -0.085270181298 -0.043068692088
          -0.04280943051 -0.042774941772 -0.043070334941 -0.042975921184 -0.043218437582 -0.043001614511
          -0.043236691505 -0.042974032462 -0.043067816645 -0.042754795402 -0.042800590396 -0.043046358973
          -0.026638763025 -0.026490794495 -0.026384050027 -0.026596631855 -0.02649757266 -0.026728246361
          -0.026504358277 -0.026736095548 -0.026494236663 -0.026640521362 -0.026372162625 -0.026483161375
          -0.026584465057 -0.014490316622 -0.014309279621 -0.014218023978 -0.014452912845 -0.014353710227
          -0.014593151398 -0.014363518916 -0.014603312127 -0.014351989143 -0.014493801631 -0.01420728676
          -0.014304764569 -0.014440206811 -0.0062435939908 -0.0060746232048 -0.0059822835028 -0.0062069701962
          -0.006113243755 -0.0063420948572 -0.0061243344098 -0.0063521671109 -0.0061121117324 -0.006248335354
          -0.0059735774994 -0.0060722627677 -0.0061952043325 -0.0015968964435 -0.0013871742412 -0.0012737625511
          -0.0015506505733 -0.0014273918932 -0.0017177192494 -0.0014366819523 -0.0017299213214 -0.001427224488
          -0.001603616518 -0.001265075407 -0.0013860716717 -0.001537655713 -6.7389269078e-13 -1.6597270433e-11
          1.0548699934e-11 3.8393431229e-13 1.0318802019e-12 -1.4429797418e-12 1.9879596287e-13 1.3089574522e-14
          -2.3952963077e-15 0 0 0 -1.1319179948e-14
        </DataArray>
        <DataArray type="Float32" Name="uy" format="ascii" RangeMin="-0.79115092754" RangeMax="3.2791501719e-12">
          -0.069120623171 -0.075149148703 -0.077585794032 -0.068070746958 -0.069060608745 -0.077499575913
          -0.07516553998 -0.069079428911 -0.073695413768 -0.070227310061 -0.068078696728 -0.073843725026
          -0.069111682475 -0.070257939398 -0.073882341385 -0.070292770863 -0.073713131249 -0.070227324963
          -0.08142901957 -0.073272705078 -0.081494942307 -0.081489600241 -0.081553094089 -0.081466764212
          -0.073309473693 -0.081562876701 -0.067323900759 -0.15312230587 -0.15352132916 -0.15318076313
          -0.12402474135 -0.12443260103 -0.12406944484 -0.15364585817 -0.12456862628 -0.15342009068
          -0.12433096766 -0.15418368578 -0.1542531997 -0.15387617052 -0.12510403991 -0.12518413365
          -0.12479469925 -0.15447570384 -0.1253952533 -0.15386222303 -0.12478547543 -0.15409196913
          -0.12502114475 -0.15391655266 -0.12484069169 -0.15453910828 -0.12546427548 -0.15435498953
          -0.12529662251 -0.1539221257 -0.12485195696 -0.1535127759 -0.1244091168 -0.18339765072
          -0.18379156291 -0.18344713748 -0.18391768634 -0.18369120359 -0.18445779383 -0.18453073502
          -0.18414628506 -0.184756428 -0.18413379788 -0.18436174095 -0.18418292701 -0.18481133878
          -0.18461936712 -0.18418622017 -0.18377234042 -0.21473449469 -0.2151209861 -0.21477887034
          -0.21524748206 -0.21502397954 -0.21578705311 -0.21585963666 -0.21547280252 -0.21608872712
          -0.2154622674 -0.21568748355 -0.21550506353 -0.21613806486 -0.21593905985 -0.21550893784
          -0.21509541571 -0.24700787663 -0.24738818407 -0.24704687297 -0.24751473963 -0.24729315937
          -0.24805426598 -0.24812784791 -0.2477376163 -0.24835988879 -0.24772828817 -0.24795138836
          -0.24776594341 -0.24840328097 -0.24819780886 -0.2477696985 -0.24735599756 -0.2801052928
          -0.28047960997 -0.28013896942 -0.28060612082 -0.28038680553 -0.28114581108 -0.28122010827
          -0.28082704544 -0.28145515919 -0.28081896901 -0.28103992343 -0.28085193038 -0.28149333596
          -0.28128144145 -0.28085523844 -0.28044131398 -0.31392112374 -0.31428971887 -0.31395030022
          -0.31441655755 -0.31419897079 -0.31495627761 -0.31503078341 -0.314635396 -0.31526884437
          -0.31462851167 -0.31484749913 -0.31465649605 -0.31530165672 -0.31508392096 -0.31465956569
          -0.31424582005 -0.34835743904 -0.34872052073 -0.34838202596 -0.34884741902 -0.34863179922
          -0.34938681126 -0.34946218133 -0.34906429052 -0.34970256686 -0.34905844927 -0.34927558899
          -0.34908238053 -0.34973058105 -0.34950768948 -0.34908521175 -0.34867173433 -0.38332271576
          -0.38368108869 -0.38334357738 -0.38380816579 -0.38359382749 -0.38434720039 -0.38442286849
          -0.38402277231 -0.38466545939 -0.38401812315 -0.38423317671 -0.38403815031 -0.38468903303
          -0.38446119428 -0.38404077291 -0.38362717628 -0.41873332858 -0.41908672452 -0.41875007749
          -0.41921401024 -0.41900157928 -0.41975274682 -0.41982901096 -0.41942718625 -0.42007353902
          -0.41942316294 -0.41963681579 -0.4194393754 -0.42009314895 -0.41986075044 -0.41944205761
          -0.4190286696 -0.45451101661 -0.45486062765 -0.45452457666 -0.45498773456 -0.4547765255
          -0.45552673936 -0.45560315251 -0.45519936085 -0.45584967732 -0.45519638062 -0.45540866256
          -0.45520964265 -0.45586550236 -0.45562905073 -0.45521181822 -0.4547983408 -0.49058562517
          -0.49093186855 -0.490596205 -0.49105909467 -0.49084925652 -0.49159830809 -0.49167522788
          -0.49126967788 -0.49192348123 -0.49126708508 -0.49147829413 -0.49127730727 -0.4919359386
          -0.49169576168 -0.49127954245 -0.49086612463 -0.52689439058 -0.52723783255 -0.52690237761
          -0.52736520767 -0.52715605497 -0.52790433168 -0.52798163891 -0.52757441998 -0.5282317996
          -0.52757275105 -0.52778273821 -0.52758067846 -0.52824151516 -0.52799755335 -0.52758228779
          -0.52716875076 -0.5633816123 -0.56372243166 -0.56338751316 -0.56385010481 -0.56364166737
          -0.56438958645 -0.5644671917 -0.56405854225 -0.56471848488 -0.56405729055 -0.56426626444
          -0.56406289339 -0.56472587585 -0.56447917223 -0.56406444311 -0.56365078688 -0.5999994874
          -0.6003382206 -0.6000033021 -0.60046583414 -0.60025799274 -0.60100579262 -0.60108375549
          -0.60067355633 -0.60133653879 -0.60067278147 -0.60088115931 -0.60067653656 -0.60134142637
          -0.60109227896 -0.60067778826 -0.60026407242 -0.63670784235 -0.63704496622 -0.63671022654
          -0.63717275858 -0.63696533442 -0.63771283627 -0.63779127598 -0.63738006353 -0.63804483414
          -0.63737946749 -0.63758736849 -0.63738161325 -0.63804805279 -0.63779652119 -0.63738274574
          -0.63696891069 -0.67347466946 -0.67381048203 -0.67347615957 -0.67393839359 -0.67373150587
          -0.67447865009 -0.67455720901 -0.67414516211 -0.67481160164 -0.67414492369 -0.67435228825
          -0.67414605618 -0.67481327057 -0.67456042767 -0.67414695024 -0.67373341322 -0.71027505398
          -0.71060955524 -0.71027541161 -0.710737288 -0.71053081751 -0.71127748489 -0.71135604382
          -0.7109439373 -0.71161109209 -0.71094375849 -0.7111504674 -0.71094441414 -0.71161174774
          -0.71135777235 -0.71094489098 -0.71053159237 -0.74708932638 -0.74742352962 -0.7470896244
          -0.74755096436 -0.74734467268 -0.74809128046 -0.7481700182 -0.74775737524 -0.74842494726
          -0.74775731564 -0.74796402454 -0.74775749445 -0.74842524529 -0.74817049503 -0.74775779247
          -0.74734485149 -0.78390705585 -0.78424084187 -0.78390693665 -0.78436845541 -0.78416228294
          -0.78490871191 -0.78498762846 -0.7845749259 -0.78524243832 -0.78457480669 -0.78478121758
          -0.78457480669 -0.78524249792 -0.78498786688 -0.7845749259 -0.78416216373 -0.086677089334
          -0.091480918229 -0.086734421551 -0.093270011246 -0.090322315693 -0.10076137632 -0.10185232759
          -0.096159398556 -0.10534611344 -0.096149645746 -0.099041976035 -0.096193246543 -0.10542267561
          -0.10198263079 -0.09621604532 -0.090418845415 -0.087846204638 -0.089354775846 -0.094246052206
          -0.081442974508 -0.085391305387 -0.094279550016 -0.089376784861 -0.12419213355 -0.12454719841
          -0.12413906306 -0.15343895555 -0.1537681967 -0.15337508917 -0.12471313775 -0.15393987298
          -0.12453944236 -0.15378150344 -0.12526100874 -0.12542971969 -0.12493736297 -0.15447755158
          -0.15463007987 -0.15414732695 -0.12560600042 -0.15482011437 -0.12491697818 -0.15413329005
          -0.12512260675 -0.15434058011 -0.12498018891 -0.15419088304 -0.12554207444 -0.15476243198
          -0.12532833219 -0.15453523397 -0.12497709692 -0.15419332683 -0.12445296347 -0.15367995203
          -0.18387910724 -0.18421538174 -0.18382373452 -0.18438284099 -0.18421512842 -0.18492631614
          -0.18507111073 -0.18459287286 -0.18527054787 -0.18458035588 -0.18478985131 -0.18463049829
          -0.18522067368 -0.18499022722 -0.1846345365 -0.18412530422 -0.21541781723 -0.21575435996
          -0.2153686434 -0.2159178555 -0.21574521065 -0.21646335721 -0.21660096943 -0.21612840891
          -0.21680790186 -0.21611742675 -0.2163272351 -0.21616204083 -0.21676337719 -0.2165286392
          -0.21616511047 -0.21566608548 -0.24792189896 -0.2482598871 -0.24787835777 -0.24841992557
          -0.2482419163 -0.24896731973 -0.24909861386 -0.24863095582 -0.24931247532 -0.24862122536
          -0.24883197248 -0.24866011739 -0.24927344918 -0.2490350008 -0.24866338074 -0.24817198515
          -0.28127524257 -0.28161489964 -0.28123733401 -0.28177145123 -0.281588763 -0.28232118487
          -0.28244581819 -0.28198301792 -0.28266683221 -0.28197449446 -0.28218585253 -0.2820084691
          -0.28263297677 -0.2823907733 -0.28201165795 -0.28152751923 -0.31536921859 -0.31571012735
          -0.31533640623 -0.3158634007 -0.31567630172 -0.31641498208 -0.31653398275 -0.31607532501
          -0.31676125526 -0.31606829166 -0.31628021598 -0.31609728932 -0.31673198938 -0.31648650765
          -0.31610018015 -0.31562334299 -0.35010161996 -0.35044360161 -0.35007366538 -0.35059392452
          -0.35040286183 -0.35114747286 -0.35126054287 -0.35080629587 -0.35149344802 -0.3508003056
          -0.35101270676 -0.35082501173 -0.35146871209 -0.35122051835 -0.35082790256 -0.35035765171
          -0.38537847996 -0.38572132587 -0.38535496593 -0.38586899638 -0.38567399979 -0.38642391562
          -0.38653191924 -0.38608172536 -0.38677039742 -0.38607648015 -0.38628959656 -0.38609737158
          -0.3867495656 -0.38649883866 -0.38609969616 -0.3856357336 -0.42111298442 -0.4214566648
          -0.4210934639 -0.42160177231 -0.42140358686 -0.42215791345 -0.42226168513 -0.42181491852
          -0.42250493169 -0.421810776 -0.42202410102 -0.42182764411 -0.42248770595 -0.4222342968
          -0.42182984948 -0.42137160897 -0.45722550154 -0.45756950974 -0.45720940828 -0.45771256089
          -0.45751103759 -0.45826992393 -0.45836952329 -0.45792579651 -0.45861688256 -0.45792236924
          -0.4581361711 -0.4579359591 -0.45860299468 -0.45834699273 -0.45793822408 -0.45748496056
          -0.49364185333 -0.49398702383 -0.49362912774 -0.4941277504 -0.49392357469 -0.49468654394
          -0.4947822094 -0.49434134364 -0.49503368139 -0.49433889985 -0.49455299973 -0.49434936047
          -0.49502286315 -0.49476459622 -0.49435120821 -0.49390256405 -0.53029745817 -0.53064292669
          -0.5302875042 -0.53078222275 -0.53057539463 -0.53134232759 -0.53143489361 -0.53099608421
          -0.53168982267 -0.53099423647 -0.53120881319 -0.53100210428 -0.53168165684 -0.53142154217
          -0.53100383282 -0.53055912256 -0.56713366508 -0.5674803257 -0.56712639332 -0.56761801243
          -0.56740891933 -0.56817930937 -0.56826925278 -0.56783229113 -0.56852740049 -0.56783097982
          -0.56804609299 -0.56783664227 -0.56852138042 -0.56825953722 -0.56783813238 -0.56739646196
          -0.60410147905 -0.60444867611 -0.60409593582 -0.60458546877 -0.60437399149 -0.60514801741
          -0.60523563623 -0.60480004549 -0.60549676418 -0.60479915142 -0.60501456261 -0.60480326414
          -0.60549253225 -0.60522913933 -0.60480433702 -0.60436540842 -0.6411588788 -0.64150756598
          -0.64115542173 -0.64164316654 -0.64142984152 -0.64220696688 -0.64229291677 -0.64185827971
          -0.6425563097 -0.64185768366 -0.64207345247 -0.64186012745 -0.64255344868 -0.64228880405
          -0.64186125994 -0.64142411947 -0.67827433348 -0.67862355709 -0.67827224731 -0.6787584424
          -0.67854374647 -0.67932337523 -0.6794077158 -0.67897385359 -0.67967283726 -0.67897391319
          -0.67918980122 -0.67897492647 -0.67967158556 -0.67940557003 -0.67897564173 -0.67854034901
          -0.71542221308 -0.71577191353 -0.71542143822 -0.715906322 -0.71569055319 -0.71647197008
          -0.71655511856 -0.71612197161 -0.71682173014 -0.71612197161 -0.71633845568 -0.71612250805
          -0.71682107449 -0.7165543437 -0.71612304449 -0.71568894386 -0.75258469582 -0.75293433666
          -0.75258433819 -0.75306844711 -0.75285243988 -0.75363475084 -0.75371748209 -0.75328469276
          -0.75398445129 -0.75328451395 -0.75350093842 -0.75328475237 -0.75398445129 -0.75371736288
          -0.75328499079 -0.75285166502 -0.78975051641 -0.79010039568 -0.78975021839 -0.79023438692
          -0.79001790285 -0.79080069065 -0.79088330269 -0.79045069218 -0.79115080833 -0.79045075178
          -0.79066711664 -0.79045063257 -0.79115092754 -0.79088324308 -0.79045087099 -0.79001796246
          -0.086754739285 -0.09148517251 -0.086674764752 -0.093323938549 -0.090443775058 -0.1008348316
          -0.10203520954 -0.096211463213 -0.10549052805 -0.096187658608 -0.099048323929 -0.096247285604
          -0.10540796816 -0.10190548003 -0.096238799393 -0.090341486037 -0.087854862213 -0.089405097067
          -0.094301059842 -0.081454612315 -0.085422031581 -0.094244033098 -0.089346259832 -0.045303061604
          -0.045187909156 -0.045022640377 -0.044960249215 -0.045123867691 -0.045118756592 -0.045110061765
          -0.045135121793 -0.045130882412 -0.045313596725 -0.045024249703 -0.045192152262 -0.04495466128
          -0.028026772663 -0.027987871319 -0.027795176953 -0.02768933773 -0.02783189714 -0.027826076373
          -0.027805201709 -0.027836211026 -0.027836186811 -0.028042314574 -0.027801647782 -0.028002308682
          -0.027686139569 -0.015275510959 -0.015217167325 -0.015026162378 -0.014924059622 -0.015077027492
          -0.015071788803 -0.015051293187 -0.015079676174 -0.015081690624 -0.015287476592 -0.015032976866
          -0.015228422359 -0.014923522249 -0.0066252523102 -0.0065710078925 -0.0063861198723 -0.0062846350484
          -0.0064346976578 -0.0064285597764 -0.0064095626585 -0.0064343125559 -0.0064392732456 -0.0066362624057
          -0.0063939453103 -0.0065826801583 -0.0062856539153 -0.0017988845939 -0.0017337250756 -0.001499545644
          -0.0013747728663 -0.0015549391974 -0.0015538864536 -0.0015225694515 -0.0015591937117 -0.0015598417958
          -0.0018103497569 -0.0015096262796 -0.0017468602164 -0.0013777868589 -5.780597355e-13 3.2791501719e-12
          -1.0332188664e-12 -2.1377008236e-13 -3.330664195e-13 7.9728080691e-13 -1.9105024637e-14 -1.5912184764e-14
          1.3633371369e-14 0 0 0 0
        </DataArray>
        <DataArray type="Float32" Name="uz" format="ascii" RangeMin="-0.069327354431" RangeMax="0.067774929106">
          -0.014099119231 -0.007868709974 -0.014833632857 -0.0045816707425 0.0065653999336 0.0036307985429
          0.01147842966 -0.0069955782965 0.0015666717663 0.0027126022615 0.0041408725083 0.021753022447
          0.013648360036 0.015446500853 -0.022195069119 -0.015886273235 -0.002014035359 -0.0031475422438
          -0.001952576451 0.011412966065 0.014958474785 0.0048114196397 0.021719714627 -0.0052521638572
          -0.011869153939 -0.022187488154 -0.00020699913148 0.049165666103 0.049672637135 0.059484794736
          0.048752859235 0.049277871847 0.058635342866 0.037590399384 0.037688102573 0.035302694887
          0.035482488573 0.035237535834 0.044458016753 0.048219509423 0.035479921848 0.044291589409
          0.047897867858 0.030593331903 0.03106495738 0.039877232164 0.039902701974 0.028666812927
          0.029178882018 0.056570246816 0.055883374065 0.020274454728 0.021223073825 0.017446082085
          0.018477842212 0.023189608008 0.023903917521 0.062307693064 0.061373889446 0.0495554097
          0.05006211251 0.060260597616 0.03750827536 0.035149291158 0.035021461546 0.04458180815
          0.048525039107 0.030174238607 0.0398658216 0.028212744743 0.057188272476 0.019468978047
          0.016553437337 0.022543996572 0.063175611198 0.049900714308 0.050399772823 0.06095424667
          0.037430666387 0.035009425133 0.034827690572 0.044693041593 0.048791129142 0.029801733792
          0.039851102978 0.027806781232 0.057735268027 0.018749801442 0.015756338835 0.021967962384
          0.063945643604 0.050205033273 0.050698958337 0.061564583331 0.03736256808 0.034886036068
          0.034655932337 0.044790353626 0.049026224762 0.029471114278 0.039838194847 0.027447652072
          0.058217965066 0.018112659454 0.015051409602 0.021459290758 0.064624264836 0.050470788032
          0.050960257649 0.062098778784 0.03730224818 0.034777652472 0.034504756331 0.044874347746
          0.049231018871 0.029180733487 0.039826001972 0.027132092044 0.058640021831 0.017553985119
          0.01443315018 0.02101284638 0.065218269825 0.050700902939 0.051186133176 0.062561832368
          0.037249099463 0.034682396799 0.034372653812 0.044946923852 0.04940842092 0.028928223997
          0.0398148112 0.026857787743 0.059005476534 0.017068445683 0.013896058314 0.020624497905
          0.065732993186 0.05089738965 0.051379226148 0.062958337367 0.037202313542 0.034599885345
          0.03425867483 0.045008610934 0.049560021609 0.028711045161 0.039804443717 0.02662133798
          0.059318751097 0.016651259735 0.013433911838 0.020290654153 0.066173896194 0.051062900573
          0.051542125642 0.063293233514 0.037162028253 0.034528896213 0.034161455929 0.045060615987
          0.049687769264 0.028526434675 0.039794750512 0.026420505717 0.059583317488 0.016297167167
          0.013042127714 0.020006477833 0.066547036171 0.051199644804 0.051676936448 0.063571259379