<VTKFile type="UnstructuredGrid" version="1.0" byte_order="LittleEndian" header_type="UInt64">
  <UnstructuredGrid>
    <Piece NumberOfPoints="791" NumberOfCells="973">
      <PointData>
        <DataArray type="Float32" Name="ux" format="ascii" RangeMin="-0.0013733503874" RangeMax="0.0012644233648">
          7.3598043855e-06 -3.7971745769e-05 5.7941222622e-05 -4.3065042519e-06 -1.5824287402e-05 -6.7893110099e-05
          2.8413913242e-05 -1.9000846805e-05 -2.6375257221e-05 -4.3070482207e-05 -4.23982965e-06 1.6918573237e-05
          1.011526183e-05 3.4169017454e-05 1.9947592591e-05 4.2635663704e-05 -2.9127306334e-05 -5.1313545555e-05
          -7.1534130257e-05 -4.6926393225e-06 6.088230657e-05 -6.8952627771e-05 5.8406450989e-05 -7.9752593592e-05
          -4.4603239076e-06 6.9855042966e-05 -4.2506803766e-06 -0.00037212087773 0.00019460781186 0.00039796318742
          -0.00038080185186 0.00018842602731 0.0003921794123 -0.00045330057037 -0.00045907916501 -0.00095445336774
          -0.0009522534092 0.0001708407799 0.00083572464064 0.00056446454255 0.0001591204491 0.00079514813842
          0.00054980261484 0.00030916952528 0.00028143631062 1.2214261915e-05 5.7179295254e-06 -0.00041502781096
          -0.00041171113844 0.0011171175865 0.0010904395021 -0.00028529053088 -0.0002744513331 -0.00080936442828
          -0.00078068493167 -0.0010924814269 -0.0010794023983 0.0009770845063 0.00096054404275 -0.00036082247971
          0.00020083630807 0.00040119542973 -0.00044313329272 -0.00093644618755 0.00017785806267 0.00084112008335
          0.0005685366923 0.0003167456598 1.9657434677e-05 -0.00040591691504 0.001117084641 -0.00027866094024
          -0.00080010632519 -0.0010778399883 0.00097406108398 -0.00034919648897 0.00020715739811 0.00040456879651
          -0.00043382018339 -0.00092317973031 0.00018679288041 0.0008569098427 0.00057670287788 0.00032907104469
          2.7188116292e-05 -0.00040087412344 0.0011263869237 -0.00027559918817 -0.0008009535959 -0.001072019455
          0.00097595219268 -0.00033775289194 0.00021398501121 0.00040857240674 -0.00042450247565 -0.00090912205633
          0.00019559875363 0.0008705308428 0.00058450025972 0.00034062273335 3.496581121e-05 -0.00039475216181
          0.0011339699849 -0.00027156021679 -0.00079919258133 -0.0010640531546 0.00097764725797 -0.00032610955532
          0.00022091343999 0.00041276728734 -0.00041485912516 -0.00089510530233 0.00020459129883 0.0008845400298
          0.00059247680474 0.00035239523277 4.2934443627e-05 -0.00038845007657 0.0011420333758 -0.00026728620287
          -0.00079741847003 -0.0010561775416 0.0009797149105 -0.00031445675995 0.00022809414077 0.00041730739758
          -0.00040516833542 -0.00088114355458 0.00021372751507 0.00089844356989 0.00060065975413 0.00036418242962
          5.1077815442e-05 -0.00038192258216 0.0011502350681 -0.00026269702357 -0.00079518655548 -0.0010480907513
          0.00098219304346 -0.00030279238126 0.00023545928707 0.00042214663699 -0.00039537120028 -0.00086727109738
          0.00022297137184 0.00091226381483 0.00060898368247 0.00037596985931 5.9375393903e-05 -0.00037516557495
          0.0011585906614 -0.00025780149736 -0.00079255574383 -0.0010398498271 0.00098506058566 -0.00029116094811
          0.00024300688528 0.00042729248526 -0.00038551696343 -0.00085353892064 0.00023230355873 0.00092594145099
          0.00061744172126 0.00038771837717 6.7807130108e-05 -0.00036819875822 0.0011670741951 -0.00025260300026
          -0.00078950711759 -0.0010314683896 0.0009883295279 -0.00027959738509 0.00025072001154 0.00043274174095
          -0.00037562786019 -0.00083999504568 0.00024169881362 0.00093943229876 0.00062601262471 0.00039939105045
          7.6354313933e-05 -0.00036103144521 0.0011756693712 -0.00024710272555 -0.00078603281872 -0.0010229679756
          0.00099200976547 -0.0002681373735 0.00025858622394 0.00043849504436 -0.00036573043326 -0.00082668609684
          0.00025113479933 0.00095268932637 0.00063467881409 0.00041095216875 8.4998988314e-05 -0.00035367393866
          0.0011843572138 -0.00024130108068 -0.00078212114749 -0.0010143652325 0.00099611131009 -0.00025681551779
          0.00026659358991 0.00044455379248 -0.00035584939178 -0.00081365869846 0.00026058967342 0.00096566701541
          0.0006434234092 0.00042236651643 9.3724374892e-05 -0.00034613502794 0.0011931214249 -0.00023519700335
          -0.00077775929822 -0.0010056775063 0.0010006463854 -0.00024566537468 0.00027473154478 0.00045092092478
          -0.00034600842628 -0.00080095831072 0.00027004285948 0.00097832060419 0.00065223092679 0.00043360010022
          0.00010251488857 -0.00033842216362 0.0012019461719 -0.00022878804884 -0.0007729328936 -0.00099692016374
          0.0010056286119 -0.00023471935128 0.00028299089172 0.00045760089415 -0.00033622985939 -0.00078862928785
          0.0002794751199 0.00099060637876 0.00066108710598 0.00044461997459 0.00011135631939 -0.00033054139931
          0.0012108172523 -0.00022207024449 -0.00076762604294 -0.00098810740747 0.0010110730072 -0.00022400850139
          0.00029136400553 0.0004645997833 -0.00032653470407 -0.00077671487816 0.00028886864311 0.0010024821386
          0.00066997914109 0.00045539470739 0.00012023592717 -0.00032249727519 0.0012197219767 -0.0002150380169
          -0.00076182105113 -0.0009792521596 0.0010169966845 -0.00021356237994 0.00029984486173 0.00047192533384
          -0.00031694237259 -0.00076525675831 0.00029820710188 0.0010139069054 0.00067889603088 0.00046589417616
          0.0001291425724 -0.00031429258524 0.0012286491692 -0.00020768409013 -0.00075549847679 -0.00097036536317
          0.0010234180372 -0.00020340859191 0.00030842894921 0.000479586859 -0.00030747021083 -0.00075429462595
          0.00030747626442 0.0010248416802 0.00068782822927 0.00047609029571 0.00013806685456 -0.00030592890107
          0.0012375894003 -0.00019999963115 -0.00074863736518 -0.00096145650605 0.0010303573217 -0.00019357432029
          0.000317114871 0.00048759696074 -0.00029813562287 -0.00074386846973 0.00031666248105 0.0010352471145
          0.00069676828571 0.0004859554756 0.00014700122119 -0.00029740377795 0.0012465352193 -0.00019197251822
          -0.0007412128034 -0.00095253315521 0.0010378388688 -0.00018407954485 0.00032589913462 0.00049596495228
          -0.0002889475727 -0.00073400809197 0.00032575806836 0.0010450945701 0.00070571061224 0.00049546919763
          0.00015594014258 -0.00028871942777 0.0012554810382 -0.00018359388923 -0.00073320616502 -0.0009436008404
          0.0010458802572 -0.00017495435895 0.00033478881232 0.00050471577561 -0.00027992640389 -0.00072476261994
          0.0003347491147 0.0010543371318 0.00071465177462 0.00050459976774 0.00016488018446 -0.00027986231726
          0.0012644233648 -0.00017484044656 -0.00072457519127 -0.00093466299586 0.0010545214172 -0.00023250504455
          0.00010850585386 0.000222702467 -0.00029511886532 -0.00061542843468 0.00010068059782 0.00051764497766
          0.00034908726229 0.00018231532886 -2.9188304325e-06 -0.00027632538695 0.00070527940989 -0.00018436725077
          -0.00051740842173 -0.00070321344538 0.0006085113273 7.6082851592e-06 4.8800633522e-05 2.1711681256e-05
          -2.4886412575e-06 -3.3251166315e-05 -2.6624975362e-05 -5.6004944781e-05 0.00036468042526 -0.00020471659082
          -0.00040851416998 0.00035206030589 -0.00021481000294 -0.00041822189814 0.00044297191198 0.0004332853714
          0.00093633122742 0.00093456043396 -0.00017540631234 -0.00081160262926 -0.00056617136579 -0.00019104457169
          -0.00085614679847 -0.00058478239225 -0.00029777197051 -0.0003294312919 -2.1982790713e-05 -3.2358075259e-05
          0.00039560985169 0.00039501188439 -0.0011069281027 -0.0011376009788 0.00025832271785 0.0002652319381
          0.00076475308742 0.00078947615111 0.0010635908693 0.0010726500768 -0.0009769849712 -0.00099751062226
          0.00033664240618 -0.00022516447643 -0.0004255794629 0.00041899044299 0.00091243901988 -0.00020218585269
          -0.00086565950187 -0.00059297389816 -0.00034112881985 -4.3934385758e-05 0.00038177458919 -0.0011416806374
          0.00025448159431 0.00077609968139 0.0010539022041 -0.00099859852344 0.00032072945032 -0.00023577178945
          -0.00043323796126 0.00040539121255 0.00089488364756 -0.00021540751914 -0.00088573724497 -0.00060542783467
          -0.00035774122807 -5.5749980675e-05 0.00037244538544 -0.0011552722426 0.00024713267339 0.00077265844448
          0.0010437903693 -0.0010047788965 0.00030485010939 -0.00024703587405 -0.00044167795568 0.00039163680049
          0.00087638979312 -0.00022864974744 -0.00090379477479 -0.00061766186263 -0.00037372857332 -6.796465459e-05
          0.00036188671947 -0.001167292241 0.00023865795811 0.00076646119123 0.0010313879466 -0.0010109104915
          0.00028863659827 -0.00025853491388 -0.00045044286526 0.00037742269342 0.00085780210793 -0.00024221287458
          -0.00092237477656 -0.00063020933885 -0.00039007124724 -8.0503938079e-05 0.00035101387766 -0.0011799269123
          0.00022981372604 0.00076011603232 0.0010189408204 -0.0010175490752 0.00027229441912 -0.00027040546411
          -0.0004596724757 0.00036304190871 0.00083915033611 -0.00025603894028 -0.00094096839894 -0.00064308242872
          -0.00040654782788 -9.3337330327e-05 0.00033979633008 -0.0011928192107 0.00022053510475 0.00075319397729
          0.0010061635403 -0.0010247173486 0.00025583570823 -0.00028256542282 -0.00046930610551 0.0003484498302
          0.00082048296463 -0.00027007755125 -0.00095958367456 -0.00065620144596 -0.00042312961887 -0.0001064298267
          0.00032824435038 -0.0012059701839 0.00021084518812 0.00074576813495 0.00099312723614 -0.0010323799215
          0.00023931871692 -0.00029499895754 -0.00047933755559 0.00033370946767 0.000801864604 -0.00028429570375
          -0.00097814749461 -0.00066954566864 -0.00043976370944 -0.00011974765948 0.00031639140798 -0.0012193403672
          0.00020076107467 0.00073783326661 0.0009798592655 -0.0010405350477 0.00022279146651 -0.00030767617864
          -0.00048975058598 0.00031885615317 0.00078335643047 -0.00029865503893 -0.00099660258275 -0.00068308098707
          -0.00045640007011 -0.00013325906184 0.0003042598255 -0.0012329001911 0.00019029703981 0.00072939466918
          0.00096639420372 -0.0010491797002 0.00020630192012 -0.00032057231874 -0.00050053343875 0.00030392871122
          0.00076501746662 -0.00031312092324 -0.0010148896836 -0.00069677730789 -0.00047299073776 -0.00014693374396
          0.00029187230393 -0.0012466185726 0.00017946583102 0.00072045280831 0.00095276109641 -0.0010583114345
          0.00018989616365 -0.00033366389107 -0.00051167607307 0.00028896334697 0.00074690568727 -0.00032766000368
          -0.0010329517536 -0.00071060634218 -0.00048948894255 -0.00016074343876 0.00027924904134 -0.0012604674557
          0.00016827783838 0.00071100657806 0.00093898863997 -0.0010679309489 0.00017361840582 -0.00034692976624
          -0.00052317086374 0.00027399431565 0.0007290772046 -0.00034224111005 -0.0010507333791 -0.0007245419547
          -0.00050585018471 -0.00017466198187 0.0002664081112 -0.0012744205305 0.00015674122551 0.00070105207851
          0.00092510291142 -0.0010780412704 0.00015751064348 -0.00036035114317 -0.00053501263028 0.00025905366056
          0.00071158609353 -0.00035683537135 -0.0010681813583 -0.0007385603385 -0.00052203179803 -0.00018866550818
          0.00025336522958 -0.0012884540483 0.00014486163855 0.00069058302324 0.00091112783412 -0.0010886478703
          0.00014161253057 -0.00037391172373 -0.00054719881155 0.00024417089298 0.00069448410068 -0.00037141639041
          -0.0010852447012 -0.00075264007319 -0.00053799379384 -0.00020273269911 0.00024013350776 -0.0013025467051
          0.00013264213339 0.00067959039006 0.00089708465384 -0.0010997591307 0.00012596108718 -0.00038759812014
          -0.00055972969858 0.00022937299218 0.0006778203533 -0.00038596036029 -0.0011018749792 -0.0007667625905
          -0.00055369857 -0.00021684492822 0.00022672323394 -0.001316679758 0.00012008285557 0.00066806212999
          0.00088299205527 -0.0011113862274 0.00011059021926 -0.00040139944758 -0.00057260831818 0.0002146835177
          0.00066164089367 -0.0004004467919 -0.0011180271395 -0.00078091211617 -0.00056911178399 -0.00023098649399
          0.00021314220794 -0.001330837491 0.00010718128033 0.0006559836911 0.00086886575446 -0.0011235428974
          9.5532122941e-05 -0.00041530930321 -0.00058584229555 0.00020012493769 0.0006459907745 -0.00041485691327
          -0.0011336565949 -0.00079507619375 -0.0005842007813 -0.00024514485267 0.00019939310732 -0.0013450074475
          9.3930320872e-05 0.00064333510818 0.00085471832426 -0.0011362483492 8.0810437794e-05 -0.00042932055658
          -0.00059943721863 0.00018570989778 0.000630903407 -0.00042917946121 -0.0011487310985 -0.00080924556823
          -0.00059894140577 -0.00025931076379 0.00018548175285 -0.0013591803145 8.0324789451e-05 0.00063010148006
          0.0008405589615 -0.0011495167855 6.6457563662e-05 -0.00044343795162 -0.00061341573019 0.00017146099708
          0.00061643018853 -0.00044339825399 -0.0011632014066 -0.00082341447705 -0.00061329966411 -0.00027347853757
          0.00017139691045 -0.0013733503874 6.634365127e-05 0.00061624270165 0.00082639331231 -0.0011633855756
          0.00022157415515 -0.00012014919776 -0.00023381432402 0.00028346700128 0.00060415017651 -0.00011353025911
          -0.00053108134307 -0.00036153534893 -0.00019586966664 -9.1601423264e-06 0.00026388495462 -0.00071805971675
          0.00017101214326 0.00050458306214 0.00069104746217 -0.00062040350167 -1.9138733478e-05 -6.0331440181e-05
          -3.4050997783e-05 -8.2719288912e-06 2.2266725864e-05 1.4496836229e-05 4.4846230594e-05 0.00020525534637
          -2.8054773793e-06 -0.00021089578513 -0.00011746560631 -2.8278800528e-06 0.00011185623589 -2.8073002341e-06
          0.0001148145675 -2.799986305e-06 0.00020441513334 -0.00021003976872 -2.8168631161e-06 -0.00012050724763
          0.00017369643319 -1.7261882022e-06 -0.00017714436399 -9.6971634775e-05 -1.7194712427e-06 9.349262109e-05
          -1.72258558e-06 9.2579502962e-05 -1.7194777229e-06 0.00017355082673 -0.00017697663861 -1.7066677174e-06
          -9.6026262327e-05 0.00018243686645 -9.2568342325e-07 -0.00018429389456 -0.00010046378156 -9.26460757e-07
          9.8593933217e-05 -9.2378689942e-07 9.8826560134e-05 -9.2112617267e-07 0.00018256582553 -0.00018440600252
          -9.1702338523e-07 -0.00010069633572 0.00017239514273 -3.8993809426e-07 -0.00017317863239 -9.4513481599e-05
          -3.9055561274e-07 9.3710077635e-05 -3.9061760049e-07 9.3668269983e-05 -3.8878681607e-07 0.00017235812265
          -0.00017313259013 -3.8393915247e-07 -9.4466522569e-05 0.00020816923643 -8.8676500809e-08 -0.00020835238684
          -0.00011323851504 -9.0449226775e-08 0.00011303161591 -9.0390571472e-08 0.00011303689826 -8.9205030918e-08
          0.00020818140183 -0.00020835964824 -8.5815656803e-08 -0.0001132423422 0 0
          0 0 0 0 0 0
          0 0 0 0 0
        </DataArray>
        <DataArray type="Float32" Name="uy" format="ascii" RangeMin="0" RangeMax="1.08867383">
          0.089381560683 0.097429178655 0.10059221834 0.088045097888 0.089381687343 0.10059389472
          0.097428247333 0.089396908879 0.095598034561 0.090930245817 0.088067404926 0.095597490668
          0.089396692812 0.090930476785 0.095618240535 0.090934827924 0.095619477332 0.090935155749
          0.10580801964 0.094934679568 0.10580752045 0.10589049011 0.10589012504 0.10588178039
          0.09496345371 0.10588014126 0.087064117193 0.20211350918 0.20266768336 0.20211185515
          0.16270372272 0.16328392923 0.16270002723 0.20289003849 0.16351014376 0.20259647071
          0.16319544613 0.20370858908 0.20387899876 0.20322555304 0.16433407366 0.16452296078
          0.1638545841 0.20419074595 0.16481767595 0.20320257545 0.16383077204 0.20353272557
          0.16416357458 0.20329086483 0.16392239928 0.20419305563 0.16481992602 0.20387859643
          0.16452595592 0.20328938961 0.16392035782 0.20259641111 0.16319656372 0.24331177771
          0.24386835098 0.24330972135 0.24408963323 0.2437889576 0.24491420388 0.24508240819
          0.24442622066 0.24540251493 0.24440512061 0.2447360754 0.24448513985 0.24540440738
          0.24508272111 0.24448378384 0.24378883839 0.28617465496 0.28672689199 0.28617295623
          0.28694596887 0.28664410114 0.28777208924 0.28793564439 0.28728097677 0.28826290369
          0.28726199269 0.2875919342 0.28733435273 0.28826466203 0.28793570399 0.28733310103
          0.28664401174 0.33053421974 0.33108368516 0.33053267002 0.33130076528 0.33099648356
          0.33212888241 0.33228841424 0.33163455129 0.33262318373 0.33161747456 0.33194673061
          0.33168244362 0.33262476325 0.33228853345 0.33168131113 0.33099639416 0.37623810768
          0.37678456306 0.37623670697 0.37699970603 0.37669339776 0.37782987952 0.37798538804
          0.37733232975 0.37832731009 0.37731719017 0.37764576077 0.37737491727 0.37832871079
          0.37798547745 0.37737393379 0.37669333816 0.42313680053 0.42368042469 0.42313557863
          0.42389374971 0.42358538508 0.42472580075 0.42487746477 0.42422521114 0.42522630095
          0.4242118597 0.42453980446 0.42426267266 0.42522752285 0.42487752438 0.4242618084
          0.42358532548 0.47108647227 0.47162738442 0.47108542919 0.47183892131 0.47152864933
          0.47267282009 0.47282078862 0.47216933966 0.47317624092 0.47215771675 0.47248503566
          0.47220188379 0.4731773138 0.47282084823 0.47220113873 0.47152858973 0.51994943619
          0.52048778534 0.51994854212 0.52069759369 0.52038550377 0.52153325081 0.52167767286
          0.52102696896 0.52203947306 0.52101701498 0.52134376764 0.52105486393 0.52204036713
          0.52167773247 0.52105420828 0.52038544416 0.56959474087 0.57013064623 0.56959396601
          0.57033890486 0.5700250268 0.5711761713 0.5713173151 0.57066726685 0.57168495655
          0.5706589222 0.57098507881 0.57069081068 0.57168573141 0.57131737471 0.57069027424
          0.57002496719 0.6198989749 0.62043261528 0.61989831924 0.62063938379 0.62032389641
          0.62147819996 0.62161624432 0.62096685171 0.621989429 0.62095993757 0.62128555775
          0.62098628283 0.62199008465 0.62161630392 0.62098580599 0.62032389641 0.6707469821
          0.67127853632 0.67074650526 0.67148393393 0.67116695642 0.672324121 0.67245936394
          0.67181056738 0.67283767462 0.67180502415 0.67213016748 0.6718262434 0.67283815145
          0.67245936394 0.67182582617 0.67116695642 0.722032547 0.72256219387 0.72203218937
          0.72276633978 0.72244805098 0.72360783815 0.72374045849 0.72309225798 0.72412341833
          0.72308790684 0.72341257334 0.72310441732 0.72412383556 0.72374051809 0.72310417891
          0.72244799137 0.77365916967 0.77418708801 0.77365887165 0.77439016104 0.77407062054
          0.7752327919 0.77536308765 0.77471536398 0.77575016022 0.77471208572 0.7750363946
          0.77472448349 0.77575045824 0.77536308765 0.77472430468 0.77407062054 0.82554066181
          0.82606714964 0.825540483 0.82626920938 0.82594865561 0.82711279392 0.82724112272
          0.82659381628 0.82763183117 0.8265914917 0.82691550255 0.82660031319 0.82763200998
          0.82724118233 0.82660013437 0.825948596 0.87760215998 0.87812739611 0.87760204077
          0.87832868099 0.87800717354 0.87917309999 0.87929975986 0.87865275145 0.87969344854
          0.87865126133 0.87897497416 0.87865698338 0.87969356775 0.87929975986 0.87865692377
          0.87800717354 0.92978066206 0.93030488491 0.92978054285 0.93050551414 0.93018329144
          0.9313505888 0.93147587776 0.93082922697 0.93187201023 0.9308283329 0.93115180731
          0.93083167076 0.93187206984 0.93147587776 0.93083161116 0.93018329144 0.98202574253
          0.98254925013 0.98202574253 0.98274940252 0.98242670298 0.98359501362 0.9837192893
          0.98307281733 0.98411715031 0.98307240009 0.98339569569 0.98307394981 0.98411720991
          0.9837192893 0.98307394981 0.98242670298 1.0343005657 1.0348236561 1.0343005657
          1.0350234509 1.0347005129 1.03586936 1.0359930992 1.0353467464 1.0363919735
          1.0353466272 1.0356698036 1.0353471041 1.0363919735 1.0359930992 1.0353469849
          1.0347005129 1.0865824223 1.0871052742 1.0865824223 1.087305069 1.0869818926
          1.0881509781 1.0882744789 1.0876282454 1.08867383 1.0876281261 1.0879513025
          1.0876282454 1.08867383 1.0882744789 1.0876282454 1.0869818926 0.11259019375
          0.11902983487 0.11258197576 0.1214736402 0.11753896624 0.13158465922 0.13313163817
          0.12537260354 0.13780742884 0.12534683943 0.12922413647 0.1254247874 0.13780654967
          0.13313487172 0.12542705238 0.11754923314 0.11431019753 0.11633767188 0.12285894901
          0.10578974336 0.11106023192 0.12285424769 0.11633060873 0.16270203888 0.16328246891
          0.1626983583 0.20211155713 0.20266588032 0.202109918 0.16350857913 0.20288832486
          0.16319383681 0.20259463787 0.16433286667 0.16452176869 0.16385324299 0.20370709896
          0.20387755334 0.20322391391 0.16481663287 0.20418940485 0.16382940114 0.20320093632
          0.16416232288 0.20353119075 0.16392104328 0.2032892257 0.16481889784 0.20419172943
          0.16452482343 0.20387715101 0.16391895711 0.20328775048 0.1631950438 0.20259457827
          0.24330952764 0.24386626482 0.24330748618 0.24408760667 0.24378682673 0.24491243064
          0.24508066475 0.24442429841 0.24540089071 0.24440319836 0.24473424256 0.2444832027
          0.24540279806 0.24508099258 0.24448184669 0.24378672242 0.28617212176 0.28672450781
          0.28617042303 0.28694364429 0.28664165735 0.28777003288 0.28793361783 0.2872787416
          0.28826099634 0.28725975752 0.28758981824 0.28733214736 0.28826275468 0.28793367743
          0.28733089566 0.28664159775 0.33053138852 0.33108097315 0.330529809 0.33129811287
          0.33099374175 0.33212649822 0.33228605986 0.33163198829 0.33262094855 0.33161494136
          0.33194428682 0.33167988062 0.33262255788 0.33228620887 0.33167877793 0.33099368215
          0.37623491883 0.37678155303 0.37623354793 0.3769967556 0.37669032812 0.37782716751
          0.37798270583 0.37732946873 0.37832477689 0.37731432915 0.37764301896 0.37737205625
          0.3783261776 0.37798282504 0.37737107277 0.37669026852 0.42313328385 0.42367708683
          0.42313206196 0.42389044166 0.42358198762 0.42472276092 0.42487445474 0.42422202229
          0.42522341013 0.42420867085 0.42453670502 0.42425948381 0.42522466183 0.42487454414
          0.42425861955 0.42358192801 0.47108262777 0.47162371874 0.47108158469 0.47183531523
          0.47152489424 0.47266945243 0.47281745076 0.47216579318 0.47317302227 0.47215420008
          0.47248160839 0.47219836712 0.47317409515 0.47281751037 0.47219759226 0.47152486444
          0.51994526386 0.52048373222 0.51994431019 0.52069365978 0.52038139105 0.52152949572
          0.52167403698 0.52102309465 0.52203589678 0.52101314068 0.52133995295 0.52105098963
          0.52203679085 0.52167409658 0.52105033398 0.52038139105 0.56959021091 0.57012623549
          0.56958943605 0.57033455372 0.57002061605 0.57117205858 0.57131326199 0.57066303492
          0.57168108225 0.57065469027 0.57098090649 0.57068657875 0.57168185711 0.57131332159
          0.57068604231 0.57002055645 0.61989408731 0.62042790651 0.61989343166 0.62063473463
          0.62031912804 0.62147372961 0.62161183357 0.62096226215 0.62198519707 0.62095534801
          0.6212810874 0.62098169327 0.62198579311 0.62161189318 0.62098121643 0.62031906843
          0.67074173689 0.67127346992 0.67074126005 0.67147892714 0.67116183043 0.67231935263
          0.67245459557 0.67180562019 0.67283302546 0.67180007696 0.67212533951 0.67182129622
          0.6728335619 0.67245465517 0.67182093859 0.67116183043 0.72202694416 0.72255676985
          0.72202652693 0.72276097536 0.72244250774 0.72360271215 0.72373533249 0.72308695316
          0.72411841154 0.72308260202 0.72340738773 0.72309911251 0.72411882877 0.72373539209
          0.72309887409 0.72244250774 0.7736531496 0.77418130636 0.77365291119 0.77438437939
          0.77406471968 0.77522724867 0.77535760403 0.77470970154 0.7757447958 0.77470642328
          0.77503085136 0.77471882105 0.77574509382 0.77535760403 0.77471858263 0.77406471968
          0.82553434372 0.82606095076 0.8255341053 0.82626307011 0.82594239712 0.82710695267
          0.82723528147 0.82658779621 0.82762610912 0.82658547163 0.82690954208 0.82659429312
          0.82762628794 0.82723534107 0.8265941143 0.82594239712 0.87759548426 0.8781208396
          0.87759530544 0.87832218409 0.87800061703 0.87916684151 0.87929350138 0.87864637375
          0.87968730927 0.87864482403 0.87896865606 0.87865060568 0.87968748808 0.87929350138
          0.87865048647 0.87800055742 0.92977356911 0.93029797077 0.9297735095 0.93049865961
          0.9301763773 0.93134397268 0.93146932125 0.93082243204 0.93186551332 0.93082153797
          0.93114513159 0.93082487583 0.93186557293 0.93146932125 0.93082481623 0.93017631769
          0.98201829195 0.98254197836 0.98201823235 0.98274219036 0.9824193716 0.98358798027
          0.98371231556 0.98306566477 0.98411029577 0.98306524754 0.98338866234 0.98306679726
          0.98411035538 0.98371231556 0.98306679726 0.9824193716 1.0342926979 1.0348159075
          1.0342926979 1.0350158215 1.0346927643 1.035861969 1.0359857082 1.0353392363
          1.0363848209 1.0353391171 1.0356624126 1.0353394747 1.0363848209 1.0359857082
          1.0353394747 1.0346927643 1.0865741968 1.0870972872 1.0865741968 1.0872970819
          1.0869737864 1.0881432295 1.0882668495 1.0876203775 1.0886662006 1.0876202583
          1.0879435539 1.0876203775 1.0886662006 1.0882668495 1.0876203775 1.0869737864
          0.11258917302 0.11902863532 0.11258089542 0.12147309631 0.11753823608 0.13158388436
          0.13313086331 0.12537159026 0.13780674338 0.12534597516 0.12922334671 0.12542384863
          0.13780581951 0.13313406706 0.12542647123 0.117548123 0.11430990696 0.11633757502
          0.12285857648 0.1057895869 0.11105986685 0.12285408378 0.11633043736 0.057918034494
          0.057953741401 0.057918109 0.057745646685 0.05786087364 0.057745728642 0.057839222252
          0.057747960091 0.057864427567 0.057912874967 0.057912837714 0.057941991836 0.057747997344
          0.035507064313 0.035612180829 0.035507049412 0.035297039896 0.035397090018 0.035297024995
          0.035358253866 0.035296849906 0.035396527499 0.035508669913 0.035508710891 0.035615395755
          0.035296868533 0.019121557474 0.019209673628 0.019121574238 0.018916720524 0.019021261483
          0.018916720524 0.0189844165 0.018916647881 0.019021321088 0.019121099263 0.01912111789
          0.019208846614 0.01891666837 0.0081444820389 0.0082302233204 0.0081444932148 0.0079485531896
          0.0080497357994 0.0079485494643 0.0080144060776 0.007948577404 0.0080497302115 0.0081445816904
          0.0081446021795 0.0082304133102 0.0079485923052 0.0020476453938 0.0021555712447 0.0020476633217
          0.0018106052885 0.0019251495833 0.0018105964409 0.0018814119976 0.0018105843337 0.0019251522608
          0.0020476265345 0.0020476472564 0.0021555342246 0.0018105986528 0 0
          0 0 0 0 0 0
          0 0 0 0 0
        </DataArray>
        <DataArray type="Float32" Name="uz" format="ascii" RangeMin="-0.029419902712" RangeMax="0.029402328655">
          0.0046987240203 -0.0026927581057 0.0071386476047 0.0057837795466 0.0046998858452 0.0071395523846
          -0.0026905201375 -0.0046992637217 -0.015783168375 -0.012318275869 -0.0057667149231 -0.015782192349
          -0.0046973088756 -0.012317859568 0.015775252134 0.012322817929 0.015776481479 0.012323493138
          -0.0089400187135 -0.015422012657 -0.0089395474643 -0.017920717597 -0.017920168117 0.017938431352
          0.015448469669 0.017937954515 -8.9486302386e-06 0.0069930241443 -0.0035074257758 -0.0070135486312
          0.0066702677868 -0.003350475803 -0.0066874963231 0.0091546438634 0.0087434481829 0.018325392157
          0.017477791756 -0.0035050823353 -0.018339613453 -0.011331466958 -0.0033336835913 -0.017434153706
          -0.010812100023 -0.0070083332248 -0.0066459467635 -6.0259899328e-06 -5.7479142015e-06 0.0091596646234
          0.0087226340547 -0.02266654931 -0.021602440625 0.0070032910444 0.0066418824717 0.01833374612
          0.017425836995 0.022653298452 0.021592563018 -0.018340218812 -0.017499120906 0.0072939335369
          -0.0036594953854 -0.0073139457963 0.0095526631922 0.019114427269 -0.0036554201506 -0.019126966596
          -0.011822610162 -0.0073066456243 -5.9508615777e-06 0.0095549691468 -0.023644443601 0.0073024802841
          0.019120654091 0.02363161929 -0.019130777568 0.0075686830096 -0.0037965797819 -0.0075891404413
          0.0099113881588 0.019833642989 -0.0037925168872 -0.019844334573 -0.01226608362 -0.0075806579553
          -5.9718454395e-06 0.0099139716476 -0.024531830102 0.0075766486116 0.01983817108 0.024518985301
          -0.01984984614 0.0078155146912 -0.0039202366024 -0.007836131379 0.010234882124 0.020480029285
          -0.0039159972221 -0.020491346717 -0.012665935792 -0.0078277587891 -5.9658591454e-06 0.010237445123
          -0.025331331417 0.0078239673749 0.020485347137 0.025318518281 -0.020496474579 0.0080361450091
          -0.0040306504816 -0.0080569637939 0.010523824021 0.021057873964 -0.0040263533592 -0.02106911689
          -0.013023165055 -0.0080483397469 -5.9678609432e-06 0.010526507162 -0.026045599952 0.0080447671935
          0.021063191816 0.026032814756 -0.021074444056 0.0082313213497 -0.0041283578612 -0.0082523021847
          0.010779470205 0.021568976343 -0.004123955965 -0.021580250934 -0.013339178637 -0.0082435039803
          -5.967429388e-06 0.010782183148 -0.026677424088 0.0082401130348 0.021574413404 0.026664672419