<VTKFile type="UnstructuredGrid" version="1.0" byte_order="LittleEndian" header_type="UInt64">
  <UnstructuredGrid>
    <Piece NumberOfPoints="791" NumberOfCells="973">
      <PointData>
        <DataArray type="Float32" Name="ux" format="ascii" RangeMin="-0.83301925659" RangeMax="0.94916325808">
          -0.2071864754 -0.12497276813 -0.24266164005 -0.2279150933 -0.2191568166 -0.2453802824
          -0.1309991926 -0.084869138896 0.025054482743 0.0083653982729 -0.073482550681 0.019129764289
          -0.10154572129 -0.0025294865482 -0.33406999707 -0.30487298965 -0.34198945761 -0.31348457932
          -0.075405590236 0.025076463819 -0.057200238109 0.027926113456 0.041021607816 -0.3634288013
          -0.34629318118 -0.36525669694 -0.14719244838 0.39808931947 0.44849568605 0.46323859692
          0.15182283521 0.21723589301 0.24833425879 0.39639735222 0.13691176474 0.34927973151
          0.072510592639 0.45063528419 0.51822549105 0.48600757122 0.21315155923 0.32038068771
          0.27191570401 0.46277070045 0.23470851779 0.43756958842 0.193338871 0.39384421706
          0.12890395522 0.53973937035 0.35164505243 0.4082928896 0.14466825128 0.36154070497
          0.067804031074 0.33998081088 0.043681964278 0.51916503906 0.31880903244 0.53285771608
          0.54722356796 0.54157322645 0.53559273481 0.51759088039 0.55517631769 0.56921702623
          0.55794095993 0.5590108037 0.54851824045 0.54155349731 0.56582564116 0.54194658995
          0.52344214916 0.51373338699 0.55071604252 0.55532842875 0.51755315065 0.49393680692
          0.56384760141 0.60011965036 0.52637499571 0.4863884151 0.49448734522 0.51781016588
          0.53624540567 0.56716692448 0.46077501774 0.55917298794 0.58899050951 0.60435754061
          0.46273481846 0.51177120209 0.44757804275 0.41800349951 0.53090369701 0.5878379941
          0.461345613 0.36908140779 0.40801343322 0.44207409024 0.47726804018 0.53222304583
          0.33397582173 0.51915585995 0.57829552889 0.61102426052 0.34921985865 0.3350314796
          0.2877099514 0.26305058599 0.35551145673 0.40856707096 0.30420383811 0.23914627731
          0.26373797655 0.28766310215 0.31571283937 0.35924038291 0.212089926 0.34647914767
          0.40364527702 0.43302294612 0.22517926991 0.13849155605 0.069091960788 0.046251203865
          0.15219041705 0.21293881536 0.069472119212 -0.030610950664 0.018212642521 0.045244835317
          0.091139450669 0.15018972754 -0.058623671532 0.13196212053 0.20556767285 0.23589915037
          -0.032961815596 -0.10420408845 -0.22905807197 -0.26542821527 -0.087253294885 0.016794523224
          -0.24296581745 -0.4097687006 -0.32770338655 -0.28564715385 -0.19579385221 -0.095352821052
          -0.4533829987 -0.12181497365 0.0072381678037 0.057610761374 -0.39634627104 -0.3129337728
          -0.44623580575 -0.48124843836 -0.29269659519 -0.1790035218 -0.45339539647 -0.63991224766
          -0.54752224684 -0.49389126897 -0.40198990703 -0.29179790616 -0.69036358595 -0.31583476067
          -0.17180745304 -0.12514796853 -0.62750661373 -0.47747147083 -0.59430128336 -0.63051992655
          -0.45339861512 -0.35683518648 -0.59754264355 -0.78402519226 -0.69240880013 -0.63615220785
          -0.55334317684 -0.44478037953 -0.83155840635 -0.45624160767 -0.32803365588 -0.29760423303
          -0.76614922285 -0.43383488059 -0.55487394333 -0.58887982368 -0.4126277864 -0.31099289656
          -0.5569639802 -0.74181610346 -0.65267455578 -0.59443694353 -0.51976287365 -0.40463629365
          -0.78898054361 -0.41807302833 -0.28697249293 -0.25009462237 -0.72617596388 -0.24524749815
          -0.36647367477 -0.39903897047 -0.22349494696 -0.12326052785 -0.3644734621 -0.5433280468
          -0.45823314786 -0.40430119634 -0.33128923178 -0.22110389173 -0.59474003315 -0.24088424444
          -0.11586986482 -0.070029206574 -0.53578329086 0.03433387354 -0.056773461401 -0.081812873483
          0.047416016459 0.12521506846 -0.048258043826 -0.16334353387 -0.11538802832 -0.068721935153
          -0.022033633664 0.054007779807 -0.19621258974 0.040436711162 0.12298342586 0.1556044668
          -0.16992537677 0.35736560822 0.29236039519 0.27109193802 0.36717826128 0.42412650585
          0.28080826998 0.20540997386 0.24592328072 0.25405034423 0.31014534831 0.35979580879
          0.18909014761 0.33629226685 0.41070237756 0.44434607029 0.21153388917 0.61273902655
          0.55027604103 0.52604937553 0.62678092718 0.68458420038 0.53517365456 0.45043897629
          0.49951007962 0.50472390652 0.56922972202 0.61678624153 0.43890523911 0.58842819929
          0.67056822777 0.70971339941 0.46080678701 0.63393712044 0.52969938517 0.4801530242
          0.66718047857 0.76494854689 0.53198987246 0.3815819025 0.45332828164 0.49101138115
          0.56829547882 0.67126840353 0.34804278612 0.64029532671 0.76720196009 0.81762576103
          0.37712609768 0.34713974595 0.19411191344 0.14270919561 0.38230606914 0.51828175783
          0.19685585797 -0.014569806866 0.084375545382 0.1441860646 0.24694289267 0.37868022919
          -0.080341279507 0.34838026762 0.51125055552 0.58330893517 -0.022315371782 0.025100024417
          -0.15550646186 -0.21610492468 0.056789044291 0.21657942235 -0.14716345072 -0.39573153853
          -0.28425458074 -0.20015436411 -0.094645090401 0.06105197221 -0.47266584635 0.028682339936
          0.20716117322 0.28094446659 -0.40474048257 -0.22170849144 -0.38718873262 -0.43528309464
          -0.18952417374 -0.045359671116 -0.38089868426 -0.61279541254 -0.50567668676 -0.42759996653
          -0.33215901256 -0.1842841804 -0.682746768 -0.21037332714 -0.03841124475 0.026019068435
          -0.61446863413 -0.37761497498 -0.53818202019 -0.58869570494 -0.34678369761 -0.20317275822
          -0.54053026438 -0.76441448927 -0.65718007088 -0.58971941471 -0.48704844713 -0.34858840704
          -0.83301925659 -0.38201400638 -0.20427055657 -0.13580036163 -0.7642005682 -0.18789978325
          -0.079432219267 -0.077913790941 -0.16766008735 -0.26339888573 -0.029668455943 0.093609824777
          0.0045442469418 0.027302650735 -0.080949626863 -0.14005163312 0.088176734746 -0.077451430261
          -0.18784815073 -0.26440659165 0.022815816104 -0.12427771837 0.0080602513626 -0.08170286566
          -0.15791666508 -0.23523388803 -0.20818556845 -0.31639260054 -0.3320902884 -0.32363247871
          -0.32422468066 -0.43671551347 -0.42665669322 -0.41973996162 -0.32867142558 -0.4307051301
          -0.33357259631 -0.44822007418 -0.31954956055 -0.31994572282 -0.32239949703 -0.42352750897
          -0.42676207423 -0.42140027881 -0.31683850288 -0.42651966214 -0.3233383894 -0.42589470744
          -0.32376131415 -0.42289799452 -0.31523635983 -0.42113226652 -0.31272631884 -0.4138520658
          -0.31724190712 -0.41365271807 -0.32725697756 -0.43525087833 -0.31673046947 -0.41381105781
          -0.45720124245 -0.40634477139 -0.38698062301 -0.46774050593 -0.51745212078 -0.41110163927
          -0.34701371193 -0.37425366044 -0.39733535051 -0.42789041996 -0.46341446042 -0.31621366739
          -0.44796782732 -0.50055533648 -0.53072029352 -0.32789853215 -0.36036193371 -0.28653490543
          -0.25896161795 -0.38851177692 -0.4544018507 -0.29464679956 -0.16884538531 -0.22555942833
          -0.26303863525 -0.32053357363 -0.39623954892 -0.13373461366 -0.38319891691 -0.47551482916
          -0.50123953819 -0.16819663346 -0.24849016964 -0.1673360765 -0.13512198627 -0.27305904031
          -0.34331682324 -0.17043145001 -0.047593276948 -0.10695101321 -0.14302137494 -0.20166195929
          -0.27427446842 -0.0080666802824 -0.26136288047 -0.35321700573 -0.38941383362 -0.045069292188
          -0.072528116405 -0.019409997389 0.0017430769512 -0.084679484367 -0.13509494066 -0.013219850138
          0.074797853827 0.027634315193 0.011646289378 -0.036142650992 -0.081772133708 0.10068130493
          -0.063780546188 -0.1322542429 -0.16452033818 0.072972752154 0.22708357871 0.27391114831
          0.28819695115 0.21553234756 0.17205652595 0.27231344581 0.34798058867 0.30960801244
          0.29319438338 0.25834047794 0.21450267732 0.36317682266 0.22027695179 0.16576866806
          0.14956749976 0.33873453736 0.47938731313 0.48431432247 0.4697470367 0.49171742797
          0.49516454339 0.48481637239 0.48125883937 0.4836885035 0.47863587737 0.48848742247
          0.48554903269 0.47948735952 0.47387564182 0.48577672243 0.49890589714 0.46927627921
          0.4401653409 0.39362305403 0.3666177094 0.45617377758 0.50938093662 0.40173745155
          0.33596736193 0.36019346118 0.38248565793 0.41603168845 0.4584671855 0.30822086334
          0.44449770451 0.50142836571 0.53567570448 0.31841829419 0.23111614585 0.14159758389
          0.10934260488 0.25016587973 0.32891744375 0.15112434328 0.033803801984 0.082070849836
          0.12713161111 0.17190772295 0.252045542 -0.005024808459 0.23862163723 0.32846242189
          0.36254227161 0.020396990702 0.12762863934 0.0015404288424 -0.038378085941 0.15084527433
          0.25831362605 0.007620504126 -0.16458570957 -0.088178023696 -0.028604798019 0.047555200756
          0.15230661631 -0.22177359462 0.13049075007 0.25335124135 0.3051623106 -0.17557503283
          0.12987847626 -0.060555141419 -0.13381053507 0.17463849485 0.34361323714 -0.054091472179
          -0.32884612679 -0.20259305835 -0.11782851815 0.0034688899759 0.17948257923 -0.41235873103
          0.14352120459 0.35174909234 0.42946377397 -0.33665683866 0.064037553966 -0.13783307374
          -0.2111518681 0.11765062064 0.29957035184 -0.13045704365 -0.42368483543 -0.28567117453
          -0.19709001482 -0.06476546824 0.12434605509 -0.50531625748 0.086455643177 0.31457599998
          0.40179270506 -0.42656576633 -0.10481652617 -0.25286602974 -0.30009701848 -0.067141070962
          0.068003408611 -0.2495636791 -0.47948601842 -0.36877214909 -0.30645933747 -0.2025308907
          -0.056902747601 -0.53474056721 -0.08677072823 0.091079451144 0.14543163776 -0.46377339959
          -0.22771058977 -0.37794053555 -0.41899442673 -0.20197629929 -0.071802929044 -0.37533485889
          -0.5941721797 -0.48837989569 -0.42619660497 -0.32778280973 -0.1955703795 -0.64826083183
          -0.21797208488 -0.054895401001 -0.002928847447 -0.57578003407 -0.22413775325 -0.39561316371
          -0.4368698895 -0.19810275733 -0.052301898599 -0.40993449092 -0.66784799099 -0.5365383029
          -0.47176775336 -0.34726947546 -0.19933690131 -0.73173385859 -0.22984266281 -0.0358636491
          0.026685921475 -0.63578075171 -0.058316189796 -0.28389278054 -0.34681642056 -0.024544429034
          0.16657361388 -0.30467540026 -0.61738282442 -0.46087679267 -0.38235238194 -0.22440321743
          -0.03536663577 -0.69940572977 -0.087593212724 0.15084640682 0.24479193985 -0.59422570467
          0.2028850317 -0.039617139846 -0.11228444427 0.24684876204 0.45082184672 -0.054292771965
          -0.39067187905 -0.2239895761 -0.14321415126 0.0286722444 0.23308947682 -0.47712573409
          0.17057029903 0.43208917975 0.54072213173 -0.37625050545 0.4393235445 0.2187975049
          0.14540717006 0.47769641876 0.67031103373 0.20941692591 -0.093445375562 0.05194966495
          0.13262568414 0.28757381439 0.46750161052 -0.18552994728 0.41330012679 0.64748209715
          0.74854403734 -0.091584049165 0.61437863111 0.3817370832 0.29978257418 0.65992391109
          0.86447995901 0.38591328263 0.066994287074 0.2150952667 0.30738124251 0.45728740096
          0.6615421176 -0.027884805575 0.61016815901 0.85593605042 0.94916325808 0.061215754598
          -0.1979123503 -0.16674023867 -0.1283557862 -0.23322547972 -0.26765662432 -0.21543063223
          -0.15630725026 -0.15594014525 -0.2176771611 -0.20802292228 -0.26197105646 -0.1105171293
          -0.27340558171 -0.30807983875 -0.30867537856 -0.095452934504 -0.15577995777 -0.036729477346
          -0.14500895143 -0.17300948501 -0.25795972347 -0.25694090128 -0.33745458722 0.18260395527
          0.23752389848 0.17822767794 0.030771955848 0.049147326499 0.021380022168 -0.075101792812
          -0.16188807786 -0.19763609767 -0.31664079428 -0.33627024293 -0.38219317794 -0.18579803407
          0.24151720107 0.29004666209 0.22264485061 0.068250514567 0.098694801331 0.083115078509
          -0.020836263895 -0.11076330394 -0.13747149706 -0.25842839479 -0.27527162433 -0.32431653142
          -0.11975697428 0.39405870438 0.46359711885 0.38303074241 0.1946952939 0.22464686632
          0.19524458051 0.076088838279 -0.029779639095 -0.061560731381 -0.19881212711 -0.21019405127
          -0.27062538266 -0.039729531854 0.39351060987 0.45977240801 0.40688851476 0.24200126529
          0.27141356468 0.24417847395 0.15287819505 0.04702744633 0.040396559983 -0.089814715087
          -0.064033523202 -0.13117805123 0.073874980211 0.23261466622 0.26813489199 0.24645867944
          0.1512747854 0.16517336667 0.15037593246 0.08800432831 0.021189153194 0.016781326383
          -0.061754956841 -0.040618848056 -0.07869361341 0.041455216706 1.5250080365e-10 -1.8640333721e-09
          5.2078358292e-10 -3.4287125222e-11 -5.4173495551e-11 -2.8182588208e-11 1.2638593297e-11 -5.6607393469e-13
          -2.6523013928e-13 0 0 0 9.1096000101e-13
        </DataArray>
        <DataArray type="Float32" Name="uy" format="ascii" RangeMin="-1.4182729721" RangeMax="1.1235218048">
          -0.28371408582 -0.22767007351 -0.20589290559 -0.48210793734 -0.66019397974 -0.52394354343
          -0.56859505177 -0.28387370706 -0.24304656684 -0.34658843279 -0.48986896873 -0.59835368395
          -0.6669485569 -0.58095782995 -0.24136327207 -0.33709824085 -0.57902532816 -0.56753116846
          -0.16504727304 -0.43438467383 -0.46519133449 -0.16430275142 -0.46042513847 -0.44840562344
          -0.41627493501 -0.16600447893 -0.49096274376 -0.10962466896 -0.065735213459 -0.11208719015
          -0.49545103312 -0.42285597324 -0.49344268441 -0.042857646942 -0.39000362158 -0.06798428297
          -0.4386652112 0.031156396493 0.046187181026 -0.017128815874 -0.26786652207 -0.24659967422
          -0.34758138657 0.081973329186 -0.1893439889 -0.01556591969 -0.34336993098 0.012089981697
          -0.29489558935 -0.017636146396 -0.34341943264 0.071603879333 -0.19376242161 0.038779430091
          -0.25035902858 -0.017758697271 -0.3431878984 -0.082692623138 -0.4399241209 0.30716121197
          0.31747987866 0.29847130179 0.32751220465 0.32461538911 0.35441088676 0.3449125886
          0.32591694593 0.36989688873 0.33812490106 0.35439822078 0.31243789196 0.37580895424
          0.36681631207 0.34925678372 0.2931855619 0.64771413803 0.60187548399 0.63769948483
          0.59703743458 0.61491161585 0.54689240456 0.52841341496 0.56208729744 0.51947343349
          0.57354098558 0.56153178215 0.54916095734 0.52524268627 0.54141759872 0.57370078564
          0.59356582165 0.6574048996 0.58917850256 0.65760016441 0.55464994907 0.59727835655
          0.45806095004 0.44296109676 0.51992714405 0.4003469944 0.51731652021 0.47967377305
          0.51823788881 0.40320527554 0.43970346451 0.50929242373 0.59837651253 0.44374245405
          0.38267493248 0.43960881233 0.35249039531 0.395770818 0.2692258656 0.26553106308
          0.32696771622 0.2200833112 0.32253187895 0.27757513523 0.33710739017 0.21409088373
          0.24455493689 0.31325915456 0.40137419105 0.29924014211 0.22956977785 0.30299833417
          0.19761955738 0.23969902098 0.08630259335 0.074377708137 0.15952186286 0.017356699333
          0.15708898008 0.10756790638 0.16142489016 0.013774145395 0.061619214714 0.14929486811
          0.24959847331 0.2334458679 0.11964209378 0.23724798858 0.072867102921 0.1380648464
          -0.11308371276 -0.13972592354 0.0048409304582 -0.2371109724 0.0064457072876 -0.070992030203
          0.011447424069 -0.23828798532 -0.14849385619 -0.004508591257 0.1527094841 0.018308330327
          -0.10622582585 0.022726155818 -0.15794290602 -0.079524941742 -0.37805125117 -0.41531136632
          -0.24045884609 -0.52009159327 -0.23890426755 -0.3217754364 -0.23866659403 -0.51435738802
          -0.40488862991 -0.23699133098 -0.069869846106 -0.21214112639 -0.32287716866 -0.20502872765
          -0.37198507786 -0.30264467001 -0.57327479124 -0.60724616051 -0.43961068988 -0.71224915981
          -0.44214621186 -0.52236443758 -0.44179871678 -0.70432186127 -0.59080213308 -0.44331565499
          -0.28501757979 -0.27576687932 -0.40008825064 -0.27780476213 -0.44489166141 -0.36204776168
          -0.66599696875 -0.70132672787 -0.53327679634 -0.80773484707 -0.52689754963 -0.60849052668
          -0.52734750509 -0.80191898346 -0.68755161762 -0.51490044594 -0.36805832386 -0.10770764202
          -0.23210716248 -0.1064613685 -0.27976420522 -0.19873574376 -0.48997321725 -0.52200353146
          -0.3603207171 -0.61960226297 -0.35933509469 -0.43642881513 -0.35650837421 -0.6131618619
          -0.51094442606 -0.35302519798 -0.1975043565 0.12661476433 0.041779406369 0.12887193263
          0.010259716772 0.055421788245 -0.109428294 -0.1240414381 -0.031422238797 -0.18682901561
          -0.036079641432 -0.08635122329 -0.031885612756 -0.19247844815 -0.1378723681 -0.042577639222
          0.06527505815 0.27793997526 0.21406713128 0.27336648107 0.19381728768 0.22970223427
          0.10620502383 0.096081286669 0.15769064426 0.053337629884 0.15917278826 0.12285607308
          0.1553017199 0.044093824923 0.084753073752 0.15439601243 0.22045190632 0.38821622729
          0.31606203318 0.3764577806 0.29744145274 0.34053057432 0.19177769125 0.18356642127
          0.25578537583 0.13111285865 0.25415146351 0.21090936661 0.25167360902 0.11635991186
          0.15958118439 0.24987106025 0.32265752554 0.52494680882 0.41022050381 0.50807136297
          0.37339580059 0.4456192553 0.20547881722 0.18562994897 0.30634903908 0.10019163787
          0.30711144209 0.24141177535 0.30087453127 0.085133090615 0.16111883521 0.30217450857
          0.41464775801 0.60586255789 0.43979936838 0.60069197416 0.37922677398 0.4823846817
          0.11854718626 0.084849320352 0.28016540408 -0.031138332561 0.28294849396 0.17823375762
          0.26780721545 -0.039907433093 0.073965907097 0.2711507678 0.47201943398 0.43282628059
          0.25184324384 0.43948987126 0.17385132611 0.28320661187 -0.11019386351 -0.15088488162
          0.070877596736 -0.28154838085 0.06519087404 -0.043660182506 0.073993697762 -0.28156352043
          -0.1529687494 0.058970592916 0.30253511667 0.14910499752 -0.015918768942 0.15213832259
          -0.080285422504 0.031067740172 -0.35750964284 -0.39406952262 -0.18366032839 -0.53103339672
          -0.18509294093 -0.29255202413 -0.17976634204 -0.52866595984 -0.39869686961 -0.18333692849
          0.023446187377 -0.029343552887 -0.20164807141 -0.030206244439 -0.26164084673 -0.15641923249
          -0.55039089918 -0.59468722343 -0.37745416164 -0.72054165602 -0.37351727486 -0.48302048445
          -0.37805455923 -0.72060012817 -0.58584064245 -0.36808332801 -0.15954589844 -0.82624256611
          -0.69808143377 -0.82629883289 -0.64476132393 -0.72120684385 -0.45731392503 -0.44460108876
          -0.58740150928 -0.34536710382 -0.56978476048 -0.49009129405 -0.59199202061 -0.32427948713
          -0.40199074149 -0.55501776934 -0.73170441389 -0.35088482499 -0.33266815543 -0.24980142713
          -0.45946165919 -0.3863748014 -0.23474782705 -0.31488206983 0.69028496742 0.68936544657
          0.69608706236 0.86167269945 0.85078161955 0.86104011536 0.6832677722 0.84279483557
          0.6819293499 0.84136039019 0.68290179968 0.67721009254 0.68481338024 0.83959436417
          0.8381588459 0.84423166513 0.67693513632 0.84351587296 0.68517059088 0.83898824453
          0.68009459972 0.83011978865 0.67934918404 0.83538341522 0.67220789194 0.83342128992
          0.66608542204 0.81246298552 0.67127090693 0.81547373533 0.68794357777 0.8465334177
          0.81254559755 0.75431805849 0.81045162678 0.73439973593 0.7642840147 0.64615881443
          0.62770318985 0.6929218173 0.60073542595 0.70030921698 0.66381281614 0.68668842316
          0.6002177 0.63001924753 0.69252163172 0.75881314278 0.52463686466 0.4354621768
          0.52178925276 0.40727618337 0.46243348718 0.25281238556 0.22064593434 0.34245732427
          0.15320602059 0.35082891583 0.29479560256 0.33424043655 0.16223108768 0.23880162835
          0.35257259011 0.4533149302 0.20616616309 0.11041598022 0.19818356633 0.080723702908
          0.14146418869 -0.073610708117 -0.096132703125 0.013875886798 -0.16046240926 0.018446860835
          -0.03139751032 0.016343034804 -0.15721255541 -0.084740012884 0.031546700746 0.12980999053
          -0.12982188165 -0.19880856574 -0.13153396547 -0.21952418983 -0.16690991819 -0.34256878495
          -0.35897019506 -0.27885273099 -0.40174257755 -0.26965326071 -0.3106546998 -0.27575466037
          -0.40269136429 -0.35222634673 -0.25607222319 -0.19005642831 -0.33375898004 -0.38463544846
          -0.33650827408 -0.4051797986 -0.36965566874 -0.4982354939 -0.51118141413 -0.43870341778
          -0.55328083038 -0.43852043152 -0.47039747238 -0.43581053615 -0.54891258478 -0.50265192986
          -0.43405100703 -0.37195640802 -0.62084716558 -0.60997647047 -0.61203813553 -0.60924768448
          -0.61401766539 -0.5983569026 -0.60046267509 -0.59931498766 -0.60205221176 -0.60384255648
          -0.59867572784 -0.60129213333 -0.59305971861 -0.58962786198 -0.59999746084 -0.6047155261
          -0.82786226273 -0.75728869438 -0.81776189804 -0.73540771008 -0.77722156048 -0.63704836369
          -0.62533187866 -0.69090300798 -0.59054201841 -0.69760394096 -0.65204256773 -0.68285953999
          -0.58180063963 -0.60728871822 -0.68569988012 -0.76235234737 -0.74810284376 -0.65686619282
          -0.7408875823 -0.6236948967 -0.67503452301 -0.49059906602 -0.4639672935 -0.56915026903
          -0.40548944473 -0.5725312233 -0.51920574903 -0.56539225578 -0.40491366386 -0.46798101068
          -0.56618487835 -0.67047774792 -0.57889181376 -0.45206668973 -0.58086740971 -0.39659756422
          -0.4729206562 -0.19836366177 -0.15799431503 -0.31955915689 -0.070469126105 -0.31906968355
          -0.24213452637 -0.32036465406 -0.076547369361 -0.17347794771 -0.31804814935 -0.4834818542
          -0.43450120091 -0.23370045424 -0.4306422174 -0.15389537811 -0.28340020776 0.16996437311
          0.21950872242 -0.027717154473 0.37052643299 -0.028599230573 0.095883302391 -0.025938354433
          0.3727851212 0.21883769333 -0.025952927768 -0.27210715413 -0.1420045346 0.081859149039
          -0.13058868051 0.16202355921 0.018430219963 0.52100270987 0.56687045097 0.2986112237
          0.73540776968 0.30082833767 0.43753248453 0.30065593123 0.74441564083 0.58015584946
          0.29940211773 0.037319682539 0.29659333825 0.44838291407 0.29767951369 0.50688517094
          0.41078680754 0.77460366488 0.81164509058 0.60242265463 0.94643592834 0.60620284081
          0.71211367846 0.59935176373 0.9506456852 0.81707769632 0.60724598169 0.40594223142
          0.49676090479 0.63920032978 0.48564398289 0.70567137003 0.61166399717 0.95849853754
          0.98875927925 0.78830575943 1.1235218048 0.79823094606 0.90280550718 0.777572155
          1.1232162714 0.99288088083 0.79728043079 0.58589106798 0.36325007677 0.53271752596
          0.35011902452 0.60548168421 0.49887636304 0.91176366806 0.95032179356 0.71452301741
          1.1052128077 0.72005772591 0.84255695343 0.70011270046 1.1057598591 0.95129531622
          0.71499925852 0.46615847945 -0.086838558316 0.13150179386 -0.10242271423 0.22425638139
          0.089253902435 0.57094973326 0.61416447163 0.34794437885 0.78367781639 0.35526913404
          0.48939439654 0.34120115638 0.78754448891 0.62128335238 0.35594394803 0.061243548989
          -0.64962691069 -0.41067239642 -0.65643459558 -0.31017655134 -0.45875421166 0.065184101462
          0.11292649806 -0.17414796352 0.29468506575 -0.1726462096 -0.021960800514 -0.17542488873
          0.30231368542 0.1313970238 -0.1579079181 -0.47679296136 -1.0380336046 -0.80317276716
          -1.037435174 -0.713568151 -0.85694283247 -0.34911477566 -0.3032348156 -0.57591420412
          -0.13264708221 -0.5734577179 -0.43275484443 -0.57260513306 -0.13038772345 -0.28881672025
          -0.57016658783 -0.86044603586 -1.4182729721 -1.1852017641 -1.4181274176 -1.0953124762
          -1.2385338545 -0.7304045558 -0.67981016636 -0.95736885071 -0.50118345022 -0.95541226864
          -0.81676989794 -0.9614470005 -0.50022566319 -0.67566865683 -0.9580053091 -1.236934185
          0.23449313641 0.26048457623 0.23320831358 0.27109900117 0.2531440258 0.32114651799
          0.32514119148 0.29064238071 0.34933212399 0.29049816728 0.30893674493 0.28526940942
          0.34680104256 0.32295143604 0.28674161434 0.249550879 -0.096914432943 -0.082172811031
          -0.032119560987 -0.16235473752 -0.12521678209 -0.026320774108 -0.081391371787 -0.89329439402
          -0.71952903271 -0.55337917805 -0.45135736465 -0.72412717342 -1.0106576681 -0.72398114204
          -0.45097717643 -0.72326672077 -0.55374461412 -0.8927513957 -0.71932303905 -1.0057951212
          -1.0522674322 -0.86357265711 -0.68380826712 -0.57679134607 -0.86992448568 -1.1685854197
          -0.87447232008 -0.57334506512 -0.86570805311 -0.67792373896 -1.0430408716 -0.85264068842
          -1.1689556837 -0.82658284903 -0.60341715813 -0.39297613502 -0.27146029472 -0.61387616396
          -0.96620953083 -0.61659908295 -0.28380131721 -0.61876380444 -0.41226938367 -0.82340574265
          -0.61798709631 -0.95963400602 -0.37409490347 -0.21100139618 -0.035080492496 0.080413840711
          -0.20048458874 -0.46282145381 -0.19390292466 0.075335837901 -0.19254492223 -0.030387897044
          -0.35267904401 -0.19656154513 -0.45351263881 -0.063942782581 0.018945258111 0.11721263826
          0.18255637586 0.030749760568 -0.11288946122 0.030398042873 0.18012593687 0.03190311417
          0.10942549258 -0.059099555016 0.021321458742 -0.10858380049 -4.881972604e-11 8.6789794101e-12
          1.7064976168e-11 -2.5109130053e-11 -1.5002356996e-11 3.0875954571e-11 -3.054354946e-12 7.6128578268e-13
          3.152851515e-13 0 0 0 0
        </DataArray>
        <DataArray type="Float32" Name="uz" format="ascii" RangeMin="-0.25452065468" RangeMax="0.45032545924">
          0.067480064929 0.013267011382 0.10552369803 0.10378362238 0.13755914569 0.16636058688
          0.068186417222 -0.013523993082 -0.10342670232 -0.077228143811 -0.0036106498446 -0.05555928871
          0.049086991698 -0.035536717623 0.18279254436 0.14740045369 0.25595033169 0.18969754875
          -0.036125216633 -0.079072833061 0.0092395469546 -0.12227226049 -0.076759561896 0.27612644434
          0.20681078732 0.21484234929 0.046326655895 -0.027571300045 -0.075145468116 -0.1497631073
          -0.079168349504 -0.098491750658 -0.20209400356 0.048181727529 0.032475341111 0.10212631524
          0.064017534256 0.0040895044804 -0.10462526232 -0.099831104279 0.022103497759 -0.073480576277
          -0.098438419402 0.02126984112 0.06346269697 -0.0065683792345 -0.0072786174715 0.095662623644
          0.098799474537 -0.19262477756 -0.19328920543 0.13744772971 0.16339235008 0.20401580632
          0.20649386942 0.18934382498 0.17208883166 -0.21114775538 -0.24212770164 0.072620265186
          0.0080103361979 -0.030294029042 0.10300250351 0.16758869588 0.028429761529 -0.071760728955
          -0.031740285456 0.0093125309795 0.045931592584 0.11813113838 -0.11000343412 0.1173363626
          0.19971080124 0.21674476564 -0.097522422671 0.15108837187 0.11420342326 0.11732424051
          0.14312057197 0.16894294322 0.096747376025 0.065838180482 0.091666057706 0.078636318445
          0.11597618461 0.13193054497 0.064770542085 0.11032227427 0.14956916869 0.17156308889
          0.082536809146 0.1949133724 0.19090902805 0.23435260355 0.14887723327 0.13341723382
          0.13824932277 0.17028732598 0.17698822916 0.1246265769 0.15375649929 0.11874408275
          0.2099339515 0.084737800062 0.073845788836 0.092185147107 0.23386900127 0.22249014676
          0.21380762756 0.28074970841 0.14405174553 0.13566286862 0.10600753874 0.15275464952
          0.18950678408 0.068654201925 0.14639343321 0.080207124352 0.2395234406 0.014268473722
          0.0064412630163 0.05539637804 0.28909352422 0.24275624752 0.22084912658 0.30293086171
          0.13952849805 0.14395368099 0.066927149892 0.0986899212 0.17594206333 -0.00050906842807
          0.1330537349 0.047344263643 0.21638861299 -0.047805085778 -0.030703123659 0.038904480636
          0.2953735888 0.19432733953 0.18668144941 0.27460193634 0.088867038488 0.081336341798
          0.038938384503 0.090556561947 0.1524952203 -0.017075959593 0.096327245235 0.0077587501146
          0.20879033208 -0.076836943626 -0.077268309891 -0.020925559103 0.28262284398 0.12297082692
          0.12729869783 0.2016800195 0.039930097759 0.016819378361 0.024141348898 0.086100116372
          0.11055009067 -0.0050237947144 0.054166618735 -0.017636263743 0.17368172109 -0.071244679391
          -0.095520414412 -0.064410485327 0.22029903531 0.066332787275 0.077909842134 0.11054226011
          0.035524103791 0.017197323963 0.04306365177 0.085851028562 0.081302016973 0.041666653007
          0.049495708197 0.013243313879 0.12082590163 -0.0021256762557 -0.03009866178 -0.020434999838
          0.13091659546 0.007516134996 0.025678405538 -0.010674799792 0.055403795093 0.049515675753
          0.082110375166 0.083097971976 0.049603428692 0.10999512672 0.05965506658 0.087149567902
          0.045454639941 0.12248445302 0.1169969216 0.092912085354 0.0080041894689 -0.02161067538
          -0.0063120862469 -0.094712138176 0.077310934663 0.087930895388 0.12750828266 0.06129084155
          0.025027006865 0.17029346526 0.077575750649 0.16119708121 -0.044958211482 0.24828140438
          0.25907891989 0.19436813891 -0.1036997214 -0.067710772157 -0.033761039376 -0.14942149818
          0.070048481226 0.068847246468 0.15679503977 0.089276790619 0.022434996441 0.22241894901