<VTKFile type="UnstructuredGrid" version="1.0" byte_order="LittleEndian" header_type="UInt64">
  <UnstructuredGrid>
    <Piece NumberOfPoints="791" NumberOfCells="973">
      <PointData>
        <DataArray type="Float32" Name="ux" format="ascii" RangeMin="-0.76919007301" RangeMax="1.0937619209">
          -0.41519075632 -0.43977025151 -0.44908827543 -0.41013669968 -0.41519200802 -0.44909125566
          -0.43977272511 -0.41515997052 -0.43421065807 -0.41945001483 -0.41009423137 -0.43421381712
          -0.41516444087 -0.41945850849 -0.43418818712 -0.41946953535 -0.43418803811 -0.41946017742
          -0.46400588751 -0.43265494704 -0.46400251985 -0.4640532732 -0.46405258775 -0.46406069398
          -0.43267056346 -0.46406060457 -0.40681084991 -0.6699591279 -0.67047721148 -0.66995668411
          -0.60290813446 -0.6029946208 -0.60291528702 -0.67068046331 -0.60308551788 -0.67073041201
          -0.60331571102 -0.67049586773 -0.67080807686 -0.67083609104 -0.60272496939 -0.60286718607
          -0.6030908823 -0.67003160715 -0.60217654705 -0.67065632343 -0.60296082497 -0.67069560289
          -0.6029086709 -0.67127978802 -0.60343950987 -0.67002558708 -0.60219568014 -0.67078638077
          -0.60286819935 -0.67121970654 -0.6034040451 -0.67075002193 -0.60332006216 -0.72149258852
          -0.72201007605 -0.72150218487 -0.72222304344 -0.72232890129 -0.72197431326 -0.72231376171
          -0.72238862514 -0.72141432762 -0.72217833996 -0.72219896317 -0.72290247679 -0.72140526772
          -0.72226828337 -0.72280949354 -0.72237104177 -0.75453126431 -0.75512170792 -0.75454747677
          -0.75534778833 -0.75544369221 -0.75508928299 -0.75547343493 -0.75554156303 -0.75448960066
          -0.75530666113 -0.75532764196 -0.75610679388 -0.75447100401 -0.75540697575 -0.75598239899
          -0.75550842285 -0.76749843359 -0.76812946796 -0.76752793789 -0.76836025715 -0.76845562458
          -0.76810109615 -0.76851803064 -0.76858323812 -0.76746934652 -0.76832592487 -0.76834249496
          -0.76919007301 -0.76743990183 -0.76841932535 -0.76902300119 -0.76855403185 -0.75923788548
          -0.75990104675 -0.75928527117 -0.7601223588 -0.76020777225 -0.7598734498 -0.76032090187
          -0.76037716866 -0.75923103094 -0.76009893417 -0.76010531187 -0.76101446152 -0.75918352604
          -0.76017451286 -0.76078689098 -0.76035386324 -0.72917991877 -0.72985440493 -0.72924154997
          -0.73006355762 -0.73013955355 -0.72982960939 -0.73029124737 -0.73033994436 -0.72919124365
          -0.73005002737 -0.73004823923 -0.73098814487 -0.72912961245 -0.73010843992 -0.73071527481
          -0.73032253981 -0.6773353219 -0.67799860239 -0.6774020195 -0.678196311 -0.67826551199
          -0.6779744029 -0.67843139172 -0.67847537994 -0.67735409737 -0.67818784714 -0.67818170786
          -0.67911267281 -0.67728763819 -0.67823636532 -0.67882579565 -0.67846149206 -0.60424262285
          -0.60487878323 -0.60431307554 -0.60506117344 -0.60512268543 -0.60485631227 -0.60529798269
          -0.60533642769 -0.60426795483 -0.60505741835 -0.6050478816 -0.60594838858 -0.60419929028
          -0.60509645939 -0.60565418005 -0.60532695055 -0.51094913483 -0.51154327393 -0.51102101803
          -0.51170682907 -0.51175945997 -0.51152217388 -0.51193737984 -0.51197057962 -0.51097875834
          -0.5117071867 -0.51169478893 -0.51254200935 -0.51090955734 -0.51173633337 -0.51225078106
          -0.51196479797 -0.39893707633 -0.39947509766 -0.3990060091 -0.39961874485 -0.39966315031
          -0.39945587516 -0.39983266592 -0.39986151457 -0.39896690845 -0.39962181449 -0.39960819483
          -0.40037837625 -0.398901999 -0.3996437788 -0.40010488033 -0.39985859394 -0.27007988095
          -0.2705501318 -0.27014276385 -0.27067312598 -0.27071025968 -0.27053281665 -0.27086290717
          -0.27088749409 -0.27010712028 -0.27067703009 -0.27066376805 -0.27133989334 -0.27004909515
          -0.27069371939 -0.27109482884 -0.27088698745 -0.12656746805 -0.12696331739 -0.12662316859
          -0.12706366181 -0.12709352374 -0.12694726884 -0.12722726166 -0.12724724412 -0.12659004331
          -0.12706838548 -0.12705512345 -0.12762890756 -0.12653876841 -0.12707823515 -0.12741450965
          -0.12724916637 0.029233563691 0.028912622482 0.029183866456 0.028836730868 0.02881584689
          0.028925629333 0.028696078807 0.028682116419 0.029210785404 0.028829552233 0.028843663633
          0.028372133151 0.029256975278 0.028828570619 0.02856031619 0.028677711263 0.19487984478
          0.19462910295 0.19483038783 0.19458276033 0.19457469881 0.19464021921 0.19445374608
          0.19444867969 0.19485320151 0.19456991553 0.19458922744 0.19420459867 0.19490064681
          0.19458635151 0.19438606501 0.19443871081 0.36794912815 0.36776277423 0.36789727211
          0.36774662137 0.36775127053 0.36777216196 0.36762309074 0.36762809753 0.36791601777
          0.36772662401 0.3677521944 0.36744391918 0.36796733737 0.36776256561 0.36762729287
          0.36761158705 0.54616165161 0.54603356123 0.54611068964 0.54604125023 0.54605638981
          0.54604047537 0.54592853785 0.54594069719 0.5461242795 0.54601699114 0.54604524374
          0.54581201077 0.54617458582 0.54606360197 0.54598647356 0.54592013359 0.72749382257
          0.727414608 0.72744655609 0.72743815184 0.72745984793 0.72741818428 0.7273389101
          0.72735601664 0.72745412588 0.72741150856 0.72744071484 0.72727453709 0.72750145197
          0.72746497393 0.72743284702 0.72733426094 0.91032522917 0.91027915478 0.91028112173
          0.91031330824 0.91033864021 0.91028130054 0.91022461653 0.91024440527 0.91028517485
          0.91028571129 0.91031455994 0.9101947546 0.91032969952 0.91034150124 0.91033941507
          0.91022229195 1.0935752392 1.093539238 1.0935308933 1.093577981 1.093605876
          1.0935407877 1.093490243 1.0935120583 1.0935328007 1.0935496092 1.0935789347
          1.0934727192 1.0935773849 1.0936070681 1.0936164856 1.0934894085 -0.48989075422
          -0.50389432907 -0.48990482092 -0.50928848982 -0.50069701672 -0.53187555075 -0.5352538228
          -0.51797544956 -0.54563945532 -0.51791709661 -0.52658826113 -0.51813876629 -0.54566037655
          -0.53525418043 -0.51811516285 -0.50070506334 -0.48781564832 -0.49358946085 -0.51167845726
          -0.46395298839 -0.4787594974 -0.51164448261 -0.49359470606 -0.60293865204 -0.60303604603
          -0.60296076536 -0.66998577118 -0.67051696777 -0.6700001955 -0.60311383009 -0.67070621252
          -0.6033346653 -0.6707456708 -0.60276514292 -0.60292112827 -0.60313987732 -0.67053490877
          -0.67086219788 -0.6708843708 -0.60221844912 -0.67007249594 -0.60299831629 -0.67069226503
          -0.60293722153 -0.67072182894 -0.60350030661 -0.67134040594 -0.60222548246 -0.6700527668
          -0.60288822651 -0.6708034277 -0.60341948271 -0.67123186588 -0.60337710381 -0.67080658674
          -0.72148799896 -0.72201985121 -0.72151583433 -0.72221684456 -0.72231078148 -0.72198325396
          -0.72234016657 -0.72240763903 -0.72142636776 -0.72218370438 -0.72219312191 -0.72293519974
          -0.72140145302 -0.72225177288 -0.7227870822 -0.72239893675 -0.75447893143 -0.75508642197
          -0.75451785326 -0.75529199839 -0.75537288189 -0.75505310297 -0.75546008348 -0.75551784039
          -0.75445878506 -0.75526553392 -0.75527232885 -0.75610053539 -0.75441938639 -0.75533783436
          -0.75590491295 -0.75549614429 -0.76740664244 -0.76805323362 -0.76745814085 -0.76826375723
          -0.76834541559 -0.7680259347 -0.76846563816 -0.76851952076 -0.76740092039 -0.76824432611
          -0.7682467103 -0.7691437602 -0.76734900475 -0.76830869913 -0.76890516281 -0.76850128174
          -0.75913506746 -0.75980961323 -0.75919926167 -0.76001501083 -0.76008963585 -0.7597823143
          -0.76024788618 -0.76029503345 -0.75914531946 -0.76000285149 -0.75999760628 -0.76094555855
          -0.75907963514 -0.76005488634 -0.76066207886 -0.76028037071 -0.72909808159 -0.7297847271
          -0.72917687893 -0.72997754812 -0.73004209995 -0.72975981236 -0.73024004698 -0.73027944565
          -0.72912716866 -0.72997575998 -0.7299618721 -0.73094141483 -0.72904700041 -0.73000967503
          -0.73061108589 -0.73027062416 -0.6772968173 -0.67797881365 -0.67738854885 -0.67815411091
          -0.67820650339 -0.67795598507 -0.67844069004 -0.67847084999 -0.67734283209 -0.67816227674
          -0.67813926935 -0.67912882566 -0.67724972963 -0.67817652225 -0.67875802517 -0.67846846581
          -0.60425692797 -0.60491591692 -0.60435622931 -0.60507202148 -0.60511434078 -0.6048951149
          -0.6053699851 -0.60539150238 -0.60431474447 -0.60508805513 -0.60505855083 -0.60602813959
          -0.60421407223 -0.60508704185 -0.60563653708 -0.60539484024 -0.51098901033 -0.51161175966
          -0.51109653711 -0.51174288988 -0.51177144051 -0.51159238815 -0.51204782724 -0.51206082106
          -0.51105827093 -0.51176762581 -0.51173096895 -0.51266252995 -0.51095122099 -0.51174843311
          -0.51225209236 -0.51207137108 -0.39897403121 -0.39955192804 -0.399094522 -0.39964917302
          -0.39965987206 -0.39953541756 -0.39996942878 -0.39996942878 -0.39906054735 -0.39968687296
          -0.39963939786 -0.40053009987 -0.39894220233 -0.39964133501 -0.4000865519 -0.39999130368
          -0.27010515332 -0.27063009143 -0.27023908496 -0.2706887424 -0.2706784606 -0.2706156075
          -0.27102348208 -0.27100965381 -0.27020934224 -0.27074062824 -0.27068024874 -0.27152085304
          -0.27007761598 -0.27066269517 -0.27104118466 -0.27104321122 -0.1265681386 -0.1270326674
          -0.12671254575 -0.12705253065 -0.12702308595 -0.12701924145 -0.1273946017 -0.12736801803
          -0.12668544054 -0.12711666524 -0.12704500556 -0.12782223523 -0.12654313445 -0.12700891495
          -0.12731675804 -0.1274124831 0.029267543927 0.028869818896 0.029116841033 0.028885470703
          0.028931537643 0.028880767524 0.02854270488 0.028581298888 0.029139665887 0.028811261058
          0.028891647235 0.028188541532 0.029288191348 0.028943279758 0.02870676294 0.028527559713
          0.19495347142 0.19462187588 0.1947966665 0.19467230141 0.19473461807 0.19463166595
          0.19433188438 0.1943809092 0.19481684268 0.19458891451 0.19467785954 0.19405056536
          0.19497147202 0.19474475086 0.19457876682 0.19431850314 0.36805450916 0.36778771877
          0.36789575219 0.36786815524 0.36794364452 0.36779543757 0.3675339222 0.36759284139
          0.36791169643 0.3677778542 0.36787244678 0.36732271314 0.3680690825 0.36795207858
          0.36785191298 0.36752340198 0.54627430439 0.54606282711 0.54611194134 0.54617112875
          0.54625976086 0.54606831074 0.54583913088 0.54590749741 0.54612278938 0.54607355595
          0.5461742878 0.54568964243 0.54628425837 0.54626572132 0.54622393847 0.54583185911
          0.72758901119 0.72742092609 0.72742247581 0.72755253315 0.72765225172 0.72742444277
          0.72721934319 0.72729587555 0.72742956877 0.72744774818 0.72755455971 0.72711843252
          0.72759568691 0.72765612602 0.72766190767 0.72721463442 0.91038072109 0.91023910046
          0.9102088809 0.91038829088 0.91049724817 0.91024047136 0.91004890203 0.91013270617
          0.91021174192 0.91027742624 0.91038906574 0.90998011827 0.91038358212 0.91049921513
          0.9105373621 0.9100471735 1.0935771465 1.0934453011 1.0934044123 1.0935997963
          1.093711853 1.0934454203 1.0932592154 1.0933454037 1.0934050083 1.0934867859
          1.0936000347 1.0932022333 1.0935777426 1.0937122107 1.0937619209 1.0932589769
          -0.48988980055 -0.50390404463 -0.48991277814 -0.50929296017 -0.50069284439 -0.53189301491
          -0.53527969122 -0.51799297333 -0.5456623435 -0.51792871952 -0.52659732103 -0.51816344261
          -0.54567599297 -0.53526103497 -0.5181145072 -0.50072264671 -0.48781850934 -0.49359476566
          -0.51168447733 -0.4639531076 -0.47876036167 -0.51164877415 -0.49359625578 -0.30116093159
          -0.30116453767 -0.30116206408 -0.30129778385 -0.3011598289 -0.30129757524 -0.30118697882
          -0.30131554604 -0.3011803925 -0.30122241378 -0.30122375488 -0.30123743415 -0.30131494999
          -0.20171031356 -0.2015414983 -0.2017083019 -0.20232643187 -0.20173384249 -0.20232658088
          -0.20178617537 -0.20235022902 -0.2017621845 -0.20176564157 -0.20176261663 -0.20160925388
          -0.20234815776 -0.11724022776 -0.11701883376 -0.11723908037 -0.11814119667 -0.11724632233
          -0.11814103276 -0.11731360853 -0.11815816164 -0.11726626009 -0.11728367954 -0.11728135496
          -0.11707158387 -0.11815617979 -0.05329510197 -0.053018733859 -0.053293976933 -0.054400276393
          -0.053325701505 -0.054400388151 -0.053416740149 -0.054415713996 -0.053343791515 -0.053333312273
          -0.053331427276 -0.05306565389 -0.054414119571 -0.013540340587 -0.013137086295 -0.013542759232
          -0.01519616507 -0.0134876417 -0.015195283107 -0.013572445139 -0.01520522777 -0.013500597328
          -0.01356716454 -0.013569639996 -0.013170297258 -0.015206880867 0 0
          0 0 0 0 0 0
          0 0 0 0 0
        </DataArray>
        <DataArray type="Float32" Name="uy" format="ascii" RangeMin="-0.0012189011322" RangeMax="0.0012828970794">
          0.00011019859812 9.1181109383e-06 0.00010599179222 4.2689331167e-05 -2.5628434742e-05 -5.4407006246e-05
          5.1297574828e-05 -2.2947006073e-06 -0.00019639269158 -1.2147476809e-05 4.340364103e-05 0.0002625217021
          8.7752472609e-05 9.2919515737e-05 0.00028456727159 0.00011837069178 -0.00021857535467 -3.9440568798e-05
          -3.7459562009e-05 3.4821412555e-05 7.5284908235e-05 -6.5682390414e-05 0.00010365190974 -6.9442568929e-05
          3.3977234125e-05 0.00010832231055 4.4500786316e-05 -0.00035379987094 0.00012371430057 0.00042424313142
          -0.00025227703736 7.4341551226e-05 0.00027997765574 -0.00014348610421 -7.6313430327e-05 -0.00060247525107
          -0.00041133689228 -0.00011401486699 -0.00067975453567 -7.5857515185e-06 -9.7248172096e-05 -0.00055890693329
          -5.3484403907e-05 -0.0004297857231 -0.00034994946327 1.179064293e-05 7.7199556472e-06 0.0002018045343
          0.00018714836915 -3.0501465517e-05 -6.5659041866e-05 0.0004088782589 0.00033391235047 0.00070054276148
          0.00058067258215 5.4247226217e-05 9.2241345556e-05 0.00063184241299 0.00042163563194 -0.00037418139982
          0.0001720720029 0.00052114424761 -0.00014443295368 -0.00066723697819 -0.00011151402578 -0.0007392615662
          1.8965636627e-05 -0.00046986714005 3.4932472772e-05 0.0002400749072 3.7053698634e-06 0.00046068048687
          0.00078809302067 6.8489323894e-05 0.00076011801139 -0.00035401192144 0.00023545937438 0.00062207848532
          -0.00011085718143 -0.00067963008769 -8.3130187704e-05 -0.00077039276948 6.468292122e-05 -0.00048025380238
          8.1775418948e-05 0.00030164423515 4.7820289183e-05 0.00053810077952 0.00089815544197 0.00011577092664
          0.00087893445743 -0.00031008190126 0.00030748068821 0.000725489459 -6.5790656663e-05 -0.00066385359969
          -4.6872832172e-05 -0.00077177514322 0.00011986714526 -0.00047418446047 0.00013493921142 0.00036021703272
          0.00010491931607 0.00059907464311 0.00098300073296 0.00016548029089 0.00099326053169 -0.00023906130809
          0.0003834675299 0.000826401636 -6.6569386945e-06 -0.00061383954016 -6.683200354e-06 -0.00075225014007
          0.00017907230358 -0.00045822712127 0.00019265079754 0.00041450830759 0.0001652653882 0.00064180255868
          0.0010447099339 0.00022077385802 0.0010926553514 -0.00015694845933 0.00045491775381 0.00090914103203
          6.0318721808e-05 -0.00054075464141 4.3352603825e-05 -0.00070399674587 0.00023976864759 -0.00041852655704
          0.00025323481532 0.00046819940326 0.00022633722983 0.00068066932727 0.0010910587152 0.00028044171631
          0.0011674690759 -7.235614612e-05 0.00051978148986 0.00096770195523 0.00013213178318 -0.00045115521061
          0.00010841406038 -0.00062086613616 0.00030513395905 -0.000346887653 0.00031777261756 0.00052383280126
          0.00029252923559 0.00072446075501 0.0011276182486 0.00034269658499 0.0012161211343 2.0433351892e-05
          0.00057897903025 0.0010104106041 0.00020799433696 -0.00034440323361 0.00017745098739 -0.00051791936858
          0.00036981824087 -0.00026047672145 0.00038162613055 0.00057427206775 0.00035745222704 0.00075823272346
          0.0011454077903 0.00040453180554 0.0012428021291 0.00010154115444 0.00061490345979 0.0010190594476
          0.00026876694756 -0.00024090909574 0.00023417593911 -0.00041124637937 0.0004168037558 -0.00017587297771
          0.00042754382594 0.00060293689603 0.00040523026837 0.00076780142263 0.0011288397945 0.00044712371891
          0.0012308544246 0.00015515458654 0.00061351503246 0.00098050071392 0.00030101335142 -0.00015559712483
          0.00026512696058 -0.00031680901884 0.0004318804713 -0.00010623317939 0.00044203593279 0.00059818616137
          0.00042083204607 0.00074306473834 0.0010693062795 0.00045936877723 0.0011678080773 0.00016894949658
          0.00056644313736 0.00088774319738 0.00029384804657 -0.0001031218344 0.00026003332459 -0.00024791285978
          0.00040630262811 -6.4955325797e-05 0.00041553689516 0.00055094657 0.00039615054266 0.00067548005609
          0.00096100766677 0.00043103398639 0.0010487503605 0.00013872506679 0.00046979336184 0.00074105203385
          0.00024060571741 -9.1074180091e-05 0.00020886135462 -0.00021812556952 0.00033359261579 -6.5683911089e-05
          0.00034135574242 0.00045407176367 0.00032420497155 0.00055574817816 0.00079673447181 0.00035452281008
          0.00087440916104 6.9889945735e-05 0.0003308536543 0.00055212673033 0.00014629671932 -0.00011660602468
          0.00011374417954 -0.00023026451527 0.0002170761436 -0.00011043748964 0.00022411873215 0.00031263264827
          0.00020906869031 0.00038840281195 0.00058541243197 0.00023623254674 0.00065563822864 -2.4155435312e-05
          0.00016304983001 0.00033982779132 2.0559438781e-05 -0.00017156454851 -2.0111241611e-05 -0.00028281690902
          6.7264605605e-05 -0.00019913396682 7.2942610132e-05 0.00013452807616 6.0539980041e-05 0.00017870881129
          0.00033528366475 8.3320424892e-05 0.00040994316805 -0.00013938205666 -2.2438360247e-05 0.00011271884432
          -0.00012647273252 -0.00025106171961 -0.00017719146854 -0.00036414517672 -0.00010301702423 -0.00031597763882
          -9.8362470453e-05 -6.3460167439e-05 -0.00010808904335 -5.2489136579e-05 6.8292982178e-05 -9.0149282187e-05
          0.00015125448408 -0.00027592395782 -0.00021971386741 -0.00012166399392 -0.00028880065656 -0.00035556679359
          -0.00034411239903 -0.00046269965242 -0.00028412780375 -0.00044374394929 -0.00028096747701 -0.00026832544245
          -0.00028755710809 -0.00028159853537 -0.00019628391601 -0.00027509659412 -0.00010971660959 -0.00043133506551
          -0.00042097319965 -0.00035585847218 -0.00046094931895 -0.00048250437248 -0.00051726546371 -0.00058078527218
          -0.00047087360872 -0.00058407965116 -0.00046845621546 -0.00047190749319 -0.00047318229917 -0.00050308700884
          -0.00044680840801 -0.00046365981689 -0.00036386068678 -0.00059973634779 -0.00061918911524 -0.00057666719658
          -0.00064015330281 -0.00063241255702 -0.00069444812834 -0.00072017166531 -0.00065750803333 -0.00073825602885
          -0.00065631780308 -0.00067094736733 -0.00065856007859 -0.00071193248732 -0.00067662604852 -0.00065412581898
          -0.00059646065347 -0.00077646563295 -0.00080652680481 -0.00077074160799 -0.0008220031159 -0.00080399477156
          -0.00087584881112 -0.00088784936816 -0.00084123853594 -0.00091178965522 -0.00084105168935 -0.00086021283641
          -0.0008413430769 -0.00090548954904 -0.00087738857837 -0.00084067205898 -0.00079523783643 -0.00018174810975
          7.130875747e-05 0.00021763920086 -6.9359113695e-05 -0.00029956226354 -5.9892056015e-05 -0.00034953880822
          -9.3233056759e-06 -0.00023590633646 1.0053207006e-05 0.00011584238382 9.4606139101e-06 0.00022535183234
          0.00037151045399 1.8368808014e-05 0.00032737123547 -2.2540762075e-06 -9.234429308e-05 -8.6867337814e-05
          1.7264052076e-05 1.674809937e-05 8.8356733613e-05 0.00011604953761 0.00018197130703 -0.00013265483722
          -0.00035079810186 0.00029892707244 -0.00016766446061 -0.00047992871259 2.25496442e-05 0.00010413952259
          0.00035094114719 0.00055738899391 6.1794242356e-05 0.00052803655853 7.5684283729e-06 9.2381917057e-05
          0.00066238973523 -2.4980960006e-05 0.00032542267581 0.00041959492955 -5.4568921769e-05 -4.4628333853e-05
          -0.00022701565467 -0.00022802941385 2.0778477847e-05 -1.129436896e-06 -0.00036007675226 -0.00042015212239
          -0.00061431917129 -0.00071983976522 -0.00013814093836 -8.5894629592e-05 -0.00048243708443 -0.00067803752609
          0.00035353191197 -0.0001797186851 -0.00054226949578 0.00014269292296 0.00065803842153 0.00012960996537
          0.00076094077667 -1.3566233065e-05 0.00050086079864 -2.9588969483e-05 -0.00022586644627 1.8615360204e-06
          -0.00042977830162 -0.00076604011701 -6.1323225964e-05 -0.00077093602158 0.00038609324838 -0.0001859467302
          -0.00058993248967 0.00016747806512 0.00072556425584 0.00016660087567 0.00085660855984 1.4101417491e-06
          0.00057992956135 -1.4771711903e-05 -0.00022331990476 1.7462585674e-05 -0.00043713027844 -0.00080851343228
          -4.7315352276e-05 -0.00083360960707 0.00040971208364 -0.00019033356511 -0.00062480819179 0.00018859546981
          0.00077535578748 0.00019722274737 0.00092551094713 1.4165750144e-05 0.00064098287839 -1.2943298771e-06
          -0.00021646269306 2.9317749068e-05 -0.00043113032007 -0.00082835636567 -3.2683292375e-05 -0.0008790018619
          0.0004104404361 -0.00019765227626 -0.00065285532037 0.00019621654064 0.00079417403322 0.00021821389964
          0.00096625142032 1.972771679e-05 0.00068307260517 5.7764705161e-06 -0.00020828438574 3.3898057154e-05
          -0.0004162756959 -0.00083005707711 -2.391738235e-05 -0.00090895569883 0.00037747336319 -0.00022042109049
          -0.0006874196697 0.00017885386478 0.00077057094313 0.00021812329942 0.00096761906752 8.1961152318e-06
          0.00069352181163 -5.4376200751e-06 -0.00021178995667 2.1017463951e-05 -0.00040450121742 -0.00082588376245
          -3.3182695915e-05 -0.00093555112835 0.00031924145878 -0.00025351537624 -0.0007206791779 0.00014132315118
          0.00071246409789 0.00019779654394 0.00093123642728 -1.9528470148e-05 0.00067360309185 -3.2028572605e-05
          -0.00022525459644 -7.7993990999e-06 -0.0003969729587 -0.00081643764861 -5.7430090237e-05 -0.00095531076659
          0.00025129813002 -0.00028586183907 -0.00074002193287 9.4596172858e-05 0.00063364842208 0.00016172190954
          0.00086127838586 -5.4609223298e-05 0.00062359083677 -6.5646971052e-05 -0.00024380402465 -4.3956293666e-05
          -0.00039525303873 -0.00080063729547 -8.8189568487e-05 -0.00095693423646 0.00015632125724 -0.00033038767288
          -0.00076309556607 2.7305381082e-05 0.00052011472872 0.00010708701302 0.00075821671635 -0.00010491551075
          0.00054610922234 -0.0001146453651 -0.00027235303423 -9.5044568297e-05 -0.00039775623009 -0.00078117247904
          -0.00013416259026 -0.00095537101151 4.7036410251e-05 -0.00037335010711 -0.00078069104347 -4.4484411774e-05
          0.0003889084619 5.5161999626e-05 0.00064577127341 -0.00015252149024 0.00046737815137 -0.00016173199401
          -0.00029290557723 -0.00014298809401 -0.00038208044134 -0.00073976820568 -0.00017825434043 -0.00093947711866
          -4.7536188504e-05 -0.0003908603976 -0.00076786073623 -9.5896641142e-05 0.00026726571377 2.7840800612e-05
          0.00054760108469 -0.0001755108824 0.00040890290984 -0.00018365595315 -0.0002840696543 -0.00016661931295
          -0.00033060324495 -0.00065858085873 -0.00019802890893 -0.00088829698507 -0.00011478769011 -0.00037775951205
          -0.00071849871892 -0.00012128236267 0.00016782464809 2.2249836547e-05 0.000463951641 -0.00017250329256
          0.00036620601895 -0.00017987174215 -0.00024869223125 -0.00016503129154 -0.000254255865 -0.00054797134362
          -0.00019211326435 -0.00080038502347 -0.00014900909446 -0.0003329742467 -0.0006326775765 -0.00011785817333
          9.7540898423e-05 4.1432082071e-05 0.00040347396862 -0.00014127801114 0.00034480233444 -0.00014745857334
          -0.0001870579872 -0.00013419067545 -0.00015372836788 -0.00041073263856 -0.00015841357526 -0.00067738286452
          -0.00015745752899 -0.00026313608396 -0.00052161392523 -8.8497377874e-05 5.322870129e-05 8.3953971625e-05
          0.00036508252379 -8.5988765932e-05 0.00034513289575 -9.0961868409e-05 -0.0001009602056 -8.0212790635e-05
          -3.1253654015e-05 -0.0002501613053 -0.00010003577336 -0.00053027016111 -0.00013681359997 -0.00017068353191
          -0.0003888377687 -3.5290431697e-05 3.8421192585e-05 0.00014831483713 0.00035300684976 -8.0354511738e-06
          0.00036825792631 -1.2388784853e-05 4.3200966502e-06 -3.6039482438e-06 0.00010634744103 -7.5609845226e-05
          -1.9755447283e-05 -0.00036447666935 -0.00010021350317 -7.0277390478e-05 -0.00025345300674 3.1124534871e-05
          4.4654560043e-05 0.00022499942861 0.00036241073394 7.9782905232e-05 0.00040949642425 7.6454809459e-05
          0.00011696375441 8.2901940914e-05 0.00024907989427 9.9044198578e-05 7.0831447374e-05 -0.00019968517881
          -4.5246135414e-05 3.6446625018e-05 -0.0001204225191 0.00011169440404 7.6549258665e-05 0.00031525388476
          0.00039905981976 0.00017721908807 0.00047250621719 0.00017537696112 0.00023579654226 0.00017926265718
          0.00039300968638 0.00026810468989 0.00017185430625 -4.2605333874e-05 2.5980329156e-05 0.00014323505457
          2.4708549518e-06 0.00020199701248 0.0001340884337 0.00041478057392 0.00046338248649 0.00027955730911
          0.00055638124468 0.0002787335834 0.00035414905869 0.0002803170064 0.00053079292411 0.00042082418804
          0.00027699503698 9.6930307336e-05 0.00011563264707 0.00024518321152 0.00010995545017 0.00029834586894
          0.00021903151355 0.00051352666924 0.00054896995425 0.00037947125384 0.00064869999187 0.0003791716008
          0.00045952605433 0.00037964488729 0.00064244412351 0.00053853262216 0.00037841795711 0.00021010175988
          0.00016976751795 -8.363462257e-05 -0.00023031762976 5.7143060985e-05 0.00028800489963 4.4473566959e-05
          0.00033459157567 -3.9643746277e-06 0.00021893440862 -2.3541957489e-05 -0.00013028748799 -2.2312868168e-05
          -0.00024228243274 -0.0003861397563 -3.075803761e-05 -0.0003395039821 2.0054190827e-05 0.00010370576638
          8.4564533608e-05 2.096595199e-05 8.7721127784e-06 -8.9330518676e-05 -0.00010262864816 -7.5633004599e-05
          9.1293266451e-05 0.00025810932857 0.00022031620028 9.1487498139e-05 -3.7421268644e-05 9.1353940661e-05
          2.8842212487e-05 9.1163070465e-05 -3.8544465497e-05 0.00021926360205 9.0071836894e-05 0.00015334422642
          -0.0003393542429 0.00011365107639 0.00056762486929 0.00040727725718 0.00011454932974 -0.00017657766875
          0.00011476796499 -0.0001115801424 0.00011467192235 -0.00029828041443 0.00052777101519 0.00011428399011
          0.00034267868614 -0.00056350464001 0.00011632518726 0.00079612160334 0.00054279738106 0.0001169589741
          -0.00030787568539 0.00011694221757 -0.00025747669861 0.0001165393478 -0.0005328564439 0.00076422165148
          0.00011493024067 0.00049163360381 -0.00074070459232 8.3605591499e-05 0.00090891640866 0.0005998967099
          8.4121289547e-05 -0.00043101978372 8.400817751e-05 -0.00038591647171 8.3715262008e-05 -0.00071341323201
          0.00088020140538 8.2988262875e-05 0.00055443996098 -0.0012189011322 3.2444029785e-05 0.0012828970794
          0.00079008325702 3.1003928598e-05 -0.00072912796168 3.0638850149e-05 -0.00069785176311 3.1165218388e-05
          -0.0011996551184 0.0012637086911 3.2990803447e-05 0.00075907149585 0 0
          0 0 0 0 0 0
          0 0 0 0 0
        </DataArray>
        <DataArray type="Float32" Name="uz" format="ascii" RangeMin="-0.24893905222" RangeMax="0.24903725088">
          -0.045279081911 -0.041685476899 -0.039448641241 -1.5374846043e-05 0.045251563191 0.039415430278
          0.041677571833 -0.045292209834 -0.042912039906 -0.028020486236 5.7444736967e-07 0.042937431484
          0.045290406793 0.028040409088 -0.04298562929 -0.028061887249 0.042930345982 0.028012907133
          -0.035865943879 1.4588993508e-05 0.035873934627 -0.035917267203 0.035949092358 0.035890888423
          -2.8886330256e-05 -0.03595129028 -7.4007098192e-06 0.18079698086 0.16487690806 0.18079507351
          0.18815734982 0.16833919287 0.18820267916 0.1588062048 0.16085122526 0.16864612699
          0.17318092287 0.13306678832 0.12926609814 0.14896783233 0.12884823978 0.12411933392
          0.14868932962 0.11710606515 0.10872043669 0.14897471666 0.14865279198 0.13914430141
          0.13645190001 0.14894534647 0.14875072241 0.11711987108 0.10875494778 0.12927034497
          0.12409775704 0.14896354079 0.14874953032 0.16863127053 0.17316240072 0.17176800966
          0.16041468084 0.17177028954 0.15612107515 0.16314658523 0.13788108528 0.13517248631
          0.14913935959 0.12654297054 0.14915047586 0.14219501615 0.14913181961 0.12656672299
          0.13519823551 0.14917039871 0.16310539842 0.16167521477 0.15549014509 0.16166462004
          0.15316167474 0.15699292719 0.14321613312 0.14172381163 0.14934377372 0.13702571392
          0.14935687184 0.14557571709 0.14932925999 0.1370511651 0.14176414907 0.14938557148
          0.15694333613 0.15081603825 0.15015809238 0.15080238879 0.14993877709 0.15035158396
          0.14892055094 0.14873810112 0.14952854812 0.14826737344 0.14954453707 0.1491741389
          0.14951205254 0.14829133451 0.14878559113 0.14957413077 0.15029910207 0.13948136568
          0.1445851773 0.13946251571 0.14656201005 0.14341247082 0.15483918786 0.15602171421