<VTKFile type="UnstructuredGrid" version="1.0" byte_order="LittleEndian" header_type="UInt64">
  <UnstructuredGrid>
    <Piece NumberOfPoints="791" NumberOfCells="973">
      <PointData>
        <DataArray type="Float32" Name="ux" format="ascii" RangeMin="-0.51876789331" RangeMax="0.51880538464">
          -0.087193362415 0.050068050623 -0.13238151371 -0.10774827003 -0.08720754087 -0.13240157068
          0.049967508763 0.087039239705 0.29046860337 0.22966948152 0.10732279718 0.29049086571
          0.087009459734 0.22975246608 -0.29045724869 -0.23003776371 -0.29043710232 -0.22996802628
          0.16464714706 0.28922811151 0.16467507184 0.32943472266 0.32947036624 -0.32960891724
          -0.28975337744 -0.32963842154 7.3977167858e-07 -0.1215576008 0.060609981418 0.12156774104
          -0.11730966717 0.05841158703 0.11728648096 -0.15847758949 -0.15278127789 -0.31748819351
          -0.3063531816 0.060191873461 0.315040797 0.19546169043 0.057860769331 0.30285730958
          0.18825998902 0.12002836168 0.11515241861 -3.5372659113e-06 -2.5192164685e-05 -0.15781314671
          -0.15185250342 0.39088773727 0.37663847208 -0.12005976588 -0.11523604393 -0.31501746178
          -0.30283784866 -0.39090299606 -0.37664431334 0.31744655967 0.30626389384 -0.12549398839
          0.062596924603 0.12550359964 -0.16371892393 -0.32793197036 0.062245108187 0.32582649589
          0.20200765133 0.12419253588 -3.8757957554e-06 -0.16314700246 0.40402337909 -0.12421808392
          -0.32580587268 -0.40402844548 0.32789823413 -0.1291629076 0.064486883581 0.12916341424
          -0.16873958707 -0.33777290583 0.064272321761 0.33649051189 0.20834815502 0.12836557627
          -4.9168916121e-06 -0.16839331388 0.41670271754 -0.12838596106 -0.33648377657 -0.41671296954
          0.3377456069 -0.13257297873 0.066250182688 0.13255402446 -0.17345900834 -0.34697690606
          0.066200561821 0.34665864706 0.21433374286 0.13236798346 -1.0722354091e-05 -0.17337879539
          0.42867738008 -0.13239246607 -0.34667599201 -0.42869848013 0.3469517529 -0.13574403524
          0.067897520959 0.13570089638 -0.17789100111 -0.35558137298 0.068030148745 0.35632866621
          0.21997690201 0.13619160652 -1.8447321054e-05 -0.17810586095 0.43997251987 -0.13622240722
          -0.35637590289 -0.44000938535 0.3555547297 -0.13869903982 0.069435931742 0.13862988353
          -0.18204124272 -0.36361995339 0.069751285017 0.36543279886 0.2252702117 0.13979871571
          -2.7110711017e-05 -0.1825516969 0.4505674839 -0.13983796537 -0.3655115664 -0.45062172413
          0.36359030008 -0.14145880938 0.070871263742 0.14136506617 -0.18591295183 -0.37112247944
          0.071354709566 0.37391498685 0.23020549119 0.14315772057 -3.537808152e-05 -0.186695382
          0.46044635773 -0.14320529997 -0.3740234673 -0.46051722765 0.37108936906 -0.14404168725
          0.072209022939 0.14392764866 -0.18950983882 -0.3781157136 0.072832480073 0.3817242384
          0.23477627337 0.14623980224 -4.2182044126e-05 -0.19051879644 0.46959468722 -0.14629416168
          -0.38185721636 -0.46967923641 0.3780798912 -0.14646172523 0.073453202844 0.14633397758
          -0.19283378124 -0.38461920619 0.074177823961 0.38881823421 0.23897612095 0.1490214467
          -4.6624274546e-05 -0.19400642812 0.47799882293 -0.14907975495 -0.38896799088 -0.47809228301
          0.38458237052 -0.14872725308 0.074606016278 0.1485940218 -0.19588460028 -0.39064332843
          0.075385719538 0.39516559243 0.24279901385 0.15148569643 -4.8049667384e-05 -0.19714635611
          0.48564600945 -0.15154416859 -0.39532250166 -0.48574236035 0.39060792327 -0.15083990991
          0.075667604804 0.15071038902 -0.19865955412 -0.39618745446 0.076453074813 0.40074747801
          0.24623925984 0.1536232233 -4.6061788453e-05 -0.19993063807 0.49252450466 -0.15367743373
          -0.40090084076 -0.49261689186 0.39615643024 -0.1527941525 0.076635822654 0.15267772973
          -0.20115318894 -0.40123921633 0.077378898859 0.40555852652 0.24929152429 0.15543290973
          -4.0533086576e-05 -0.20235566795 0.49862352014 -0.15547813475 -0.40569746494 -0.49870482087
          0.40121591091 -0.15457710624 0.077506273985 0.15448264778 -0.2033572346 -0.40577426553
          0.078164339066 0.40960693359 0.25195083022 0.15692187846 -3.1593059248e-05 -0.20442214608
          0.5039331913 -0.15695336461 -0.40972131491 -0.50399661064 0.40576216578 -0.15616902709
          0.078272469342 0.15610423684 -0.20526078343 -0.4097571373 0.07881257683 0.41291382909
          0.25421261787 0.15810514987 -1.9597429855e-05 -0.20613482594 0.50844484568 -0.1581183821
          -0.41299492121 -0.50848418474 0.4097597599 -0.15754409134 0.078926049173 0.15751494467
          -0.20685064793 -0.4131424129 0.079328685999 0.41551193595 0.25607278943 0.15900474787
          -5.0780608944e-06 -0.207502231 0.51215064526 -0.15899567306 -0.41555318236 -0.51216095686
          0.41316327453 -0.15867158771 0.079457379878 0.15868204832 -0.20811195672 -0.4158769846
          0.079719223082 0.41744369268 0.25752773881 0.15964855254 1.1324165825e-05 -0.20853573084
          0.51504415274 -0.15961356461 -0.41744104028 -0.51502162218 0.41591960192 -0.15951670706
          0.079855389893 0.1595684737 -0.20902788639 -0.41790124774 0.079992488027 0.41875982285
          0.25857454538 0.16006943583 2.8940534321e-05 -0.20924980938 0.51712012291 -0.16000537574
          -0.41871201992 -0.5170623064 0.41796916723 -0.16004422307 0.080109976232 0.16013684869
          -0.20958313346 -0.41915526986 0.080156385899 0.41951343417 0.25921094418 0.16030155122
          4.7166362492e-05 -0.20965829492 0.51837468147 -0.16020552814 -0.41942194104 -0.51828038692
          0.41925242543 -0.16021312773 0.080208182335 0.16034385562 -0.20975758135 -0.41956949234
          0.080222383142 0.41976851225 0.25943547487 0.16038616002 6.5560270741e-05 -0.20978063345
          0.51880538464 -0.16025467217 -0.41963806748 -0.51867431402 0.41970127821 -0.10974854231
          0.054749578238 0.1096874103 -0.14315021038 -0.28638935089 0.054436355829 0.2851575017
          0.17656889558 0.10877943039 -1.3605646018e-05 -0.14273941517 0.35311374068 -0.10885802656
          -0.28523674607 -0.35314211249 0.28627052903 0.051215652376 0.2682055831 0.10281244665
          -0.00010433842544 -0.13397423923 -0.10292937607 -0.26827731729 -0.11732660234 0.058397352695
          0.1172664091 -0.12157630175 0.060586772859 0.12154502422 -0.15279592574 -0.15849649906
          -0.30636698008 -0.31750422716 0.057843148708 0.3028357327 0.18823902309 0.060169458389
          0.31501412392 0.19543726742 0.11513439566 0.12000517547 -4.1031289584e-05 -2.5230792744e-05
          -0.15186676383 -0.15783219039 0.37661460042 0.3908598423 -0.11525054276 -0.12007908523
          -0.30284973979 -0.31503403187 -0.37665650249 -0.39091825485 0.30624017119 0.31742042303
          -0.1255106777 0.06257738173 0.12548288703 -0.16373510659 -0.32794564962 0.062225446105
          0.32580253482 0.2019855082 0.12417209893 -2.260524343e-05 -0.16316314042 0.4039978981
          -0.1242345646 -0.32581940293 -0.40404099226 0.32787397504 -0.1291706413 0.064475849271
          0.12915152311 -0.16874685884 -0.33777746558 0.064261376858 0.33647510409 0.20833480358
          0.12835374475 -1.4898548216e-05 -0.16840060055 0.41668590903 -0.12839369476 -0.33648839593
          -0.41671642661 0.3377301693 -0.13256777823 0.066252157092 0.13255496323 -0.17345322669
          -0.3469683826 0.066202558577 0.34665611386 0.21433329582 0.13236901164 -7.7052118286e-06
          -0.17337299883 0.42867344618 -0.13238719106 -0.34666743875 -0.42868867517 0.3469491601
          -0.13572350144 0.067914783955 0.13571707904 -0.17786978185 -0.3555573225 0.068047448993
          0.3563413322 0.21999172866 0.13620783389 -7.7689875866e-08 -0.17808462679 0.43998381495
          -0.13620179892 -0.35635179281 -0.43998399377 0.35556739569 -0.13866265118 0.069469034672
          0.13866183162 -0.18200407922 -0.36357989907 0.069784410298 0.36546120048 0.22530086339
          0.1398306936 7.1346098593e-06 -0.1825145036 0.45059454441 -0.13980148733 -0.36547142267
          -0.45058020949 0.3636187017 -0.1414077729 0.070918999612 0.14141157269 -0.18586105108
          -0.37106761336 0.071402460337 0.373957932 0.23025074601 0.14320424199 1.3534657228e-05
          -0.18664345145 0.46048799157 -0.14315415919 -0.37396848202 -0.46046081185 0.37113234401
          -0.14397874475 0.072268642485 0.14398600161 -0.18944597244 -0.37804880738 0.072892107069
          0.38177895546 0.23483337462 0.14629814029 1.8649217964e-05 -0.19045488536 0.46964812279
          -0.14623109996 -0.38179019094 -0.46961072087 0.37813469768 -0.14639087021 0.073520697653
          0.14640015364 -0.19276195765 -0.38454431295 0.074245326221 0.38888075948 0.23904107511
          0.14908760786 2.2110107238e-05 -0.19393455982 0.4780600667 -0.14900878072 -0.38889294863
          -0.47801569104 0.3846449852 -0.14865341783 0.074676454067 0.14866310358 -0.19580975175
          -0.39056536555 0.075456157327 0.39523097873 0.24286685884 0.15155474842 2.3645581678e-05
          -0.19707146287 0.48571011424 -0.15147021413 -0.39524438977 -0.48566266894 0.39067336917
          -0.15076857805 0.075735494494 0.1507769227 -0.19858719409 -0.39611190557 0.076520964503
          0.4008102715 0.24630452693 0.15368971229 2.3109234462e-05 -0.19985823333 0.49258598685
          -0.15360599756 -0.40082517266 -0.49253961444 0.39621928334 -0.15273092687 0.076695553958
          0.15273608267 -0.20108895004 -0.40117174387 0.077438630164 0.40561306477 0.24934859574
          0.15549123287 2.0486071662e-05 -0.20229138434 0.49867674708 -0.15541480482 -0.40562987328
          -0.49863561988 0.40127053857 -0.15452735126 0.077552460134 0.15452745557 -0.20330648124
          -0.40572026372 0.078210525215 0.40964788198 0.25199434161 0.15696665645 1.589011481e-05
          -0.20437136292 0.50397276878 -0.15690353513 -0.40966719389 -0.5039408803 0.40580317378
          -0.15613755584 0.078300312161 0.1561307162 -0.20522834361 -0.40972140431 0.078840427101
          0.41293635964 0.25423774123 0.15813159943 9.5495452115e-06 -0.20610235631 0.50846594572
          -0.15808683634 -0.41295909882 -0.50844675303 0.40978237987 -0.15753483772 0.078931607306
          0.1575191617 -0.20684047043 -0.41312891245 0.079334244132 0.41551214457 0.25607556105
          0.15900895 1.7810485815e-06 -0.20749203861 0.51214939356 -0.15898635983 -0.41553962231
          -0.51214575768 0.41316354275 -0.15868750215 0.079437710345 0.15866105258 -0.20812699199
          -0.41588869691 0.079699553549 0.41741862893 0.25750526786 0.1596275419 -7.045671282e-06
          -0.20855075121 0.51501756907 -0.15962943435 -0.41745269299 -0.51503163576 0.41589456797
          -0.15955969691 0.079808607697 0.15952037275 -0.20907002687 -0.41794002056 0.079945705831
          0.41870763898 0.25852492452 0.16002133489 -1.6551301087e-05 -0.20929193497 0.51706635952
          -0.16004833579 -0.41875076294 -0.5170994401 0.41791698337 -0.160115242 0.080035127699
          0.16006070375 -0.20965333283 -0.41922211647 0.080081537366 0.41943314672 0.25913321972
          0.16022540629 -2.6396313842e-05 -0.20972849429 0.5182928443 -0.16027653217 -0.41948875785
          -0.51834559441 0.41917213798 -0.16031245887 0.080104999244 0.16023938358 -0.20985610783
          -0.41966465116 0.080119200051 0.41965988278 0.25932943821 0.16028168797 -3.6334553442e-05
          -0.20987915993 0.51869517565 -0.16035400331 -0.4197332263 -0.51876789331 0.41959264874
          -0.1097381711 0.05473459512 0.109690696 -0.14314758778 -0.286375314 0.054432090372
          0.28514921665 0.176569134 0.10877197236 -1.8984215785e-05 -0.1427398622 0.35311082006
          -0.10886114836 -0.28523489833 -0.35313108563 0.28627479076 0.05121736601 0.26819598675
          0.10281107575 -8.1238307757e-05 -0.13396796584 -0.10292876512 -0.26827919483 0.17844435573
          0.22122560441 0.17846545577 0.06793513149 0.084704086185 0.067944318056 -0.0001609835308
          -0.068217925727 -0.08491525054 -0.17869921029 -0.17871657014 -0.22142086923 -0.068212680519
          0.13386553526 0.16511487961 0.13386045396 0.051163487136 0.06375015527 0.051160912961
          -7.4055846198e-05 -0.05132156238 -0.063925907016 -0.13402828574 -0.13402421772 -0.16529202461
          -0.051323127002 0.094736047089 0.11703756452 0.094737157226 0.036186937243 0.045086592436
          0.036187734455 -5.2139515901e-05 -0.036289460957 -0.04518384859 -0.094836890697 -0.094837784767
          -0.11713472754 -0.036288909614 0.059864245355 0.073871083558 0.059863932431 0.0228860192
          0.028534552082 0.022885898128 -2.2953776352e-05 -0.022933356464 -0.028582163155 -0.059910889715
          -0.059910617769 -0.073918387294 -0.022933386266 0.028464885429 0.035055283457 0.028464933857
          0.010905898176 0.013630844653 0.010906000622 -6.2698118199e-06 -0.010919778608 -0.013642893173
          -0.02847725898 -0.028477214277 -0.0350670591 -0.010919641703 0 0
          0 0 0 0 0 0
          0 0 0 0 0
        </DataArray>
        <DataArray type="Float32" Name="uy" format="ascii" RangeMin="-1.5078260899" RangeMax="1.5077935457">
          0.27129596472 0.25505849719 0.24232263863 -1.2793351743e-05 -0.27129557729 -0.24233970046
          -0.25506979227 0.27086922526 0.26381331682 0.168319121 4.8139982027e-06 -0.26383265853
          -0.27088609338 -0.16832029819 0.2634498477 0.16852153838 -0.26345956326 -0.16853353381
          0.22050184011 -3.0425744626e-06 -0.22050498426 0.22045823932 -0.2204656899 -0.22045837343
          -3.0395278827e-06 0.22043979168 -4.9709133236e-06 -1.1549117565 -0.96865063906 -1.1549407244
          -1.2756495476 -1.0949128866 -1.2757254839 -0.89732211828 -1.0258178711 -1.0115931034
          -1.136713624 -0.59714400768 -0.55241876841 -0.78228712082 -0.73631435633 -0.69295251369
          -0.91459465027 -0.41192752123 -0.55832630396 -0.7826743722 -0.91505730152 -0.6677159071
          -0.8041588068 -0.78112542629 -0.91344791651 -0.41189396381 -0.55826199055 -0.55241465569
          -0.69294440746 -0.78115904331 -0.9134581089 -1.0116020441 -1.136672616 -1.0019857883
          -0.80929452181 -1.0020194054 -0.73555928469 -0.85397136211 -0.42498600483 -0.37893840671
          -0.61659377813 -0.23339420557 -0.61692160368 -0.49804645777 -0.61567848921 -0.23336233199
          -0.3789370358 -0.61569803953 -0.85397076607 -0.82176411152 -0.62330436707 -0.82178252935
          -0.54741322994 -0.66965031624 -0.22699698806 -0.1797914952 -0.42482119799 -0.029174340889
          -0.42501974106 -0.30248090625 -0.4242528379 -0.02915609628 -0.17979158461 -0.42426690459
          -0.6696524024 -0.62466365099 -0.42073637247 -0.62466847897 -0.34282433987 -0.4687615335
          -0.013030780479 0.035191886127 -0.21680735052 0.1907453984 -0.2168533504 -0.090848773718
          -0.21667520702 0.19074995816 0.035191960633 -0.21667832136 -0.46876147389 -0.42299559712
          -0.21396133304 -0.42298421264 -0.13416951895 -0.26361501217 0.20449544489 0.25362628698
          -0.0049371412024 0.41392859817 -0.0048138750717 0.12445107847 -0.0052832192741 0.41391709447
          0.25362539291 -0.005275351461 -0.26361438632 -0.2303775847 -0.016567286104 -0.23035025597
          0.064976647496 -0.067774169147 0.41197350621 0.46193319559 0.19721771777 0.62673151493
          0.19751054049 0.32982945442 0.1963917613 0.626704216 0.46193161607 0.19641089439
          -0.067772522569 -0.060445010662 0.15782152116 -0.060402967036 0.24100145698 0.10517152399
          0.59576570988 0.64650273323 0.37604954839 0.81548535824 0.37649840117 0.51166594028
          0.37478235364 0.81544345617 0.64650046825 0.37481179833 0.10517400503 0.074267350137
          0.29668313265 0.074321620166 0.38139280677 0.2427278161 0.74333435297 0.79482221603
          0.51904922724 0.96762406826 0.51962804794 0.65743857622 0.51741462946 0.96757000685
          0.79481941462 0.51745265722 0.24273100495 0.16332879663 0.38959544897 0.16339190304
          0.47573623061 0.33449569345 0.84424376488 0.89647549391 0.61580443382 1.0726884604
          0.61647713184 0.75672441721 0.61390435696 1.0726256371 0.89647221565 0.6139485836
          0.33449941874 0.19921337068 0.42903679609 0.19928126037 0.51651442051 0.37296935916
          0.89095938206 0.94394087791 0.65879815817 1.1231262684 0.65952199697 0.80199843645
          0.65675377846 1.1230587959 0.94393742085 0.65680140257 0.37297335267 0.17784169316
          0.41092672944 0.17791005969 0.49964791536 0.35407611728 0.87938928604 0.93313151598
          0.64394921064 1.1148350239 0.64467841387 0.78917378187 0.64188998938 1.1147669554
          0.93312799931 0.64193797112 0.35408011079 0.098821729422 0.33486628532 0.098886355758
          0.42473459244 0.27741593122 0.80912405252 0.86363446712 0.57085162401 1.0474017859
          0.57154148817 0.71784216166 0.56890410185 1.047337532 0.86363112926 0.56894952059
          0.27741974592 -0.034634772688 0.20405456424 -0.034577641636 0.29496654868 0.14617806673
          0.68335366249 0.73862761259 0.44269138575 0.92402046919 0.44330236316 0.59118980169
          0.44096764922 0.92396360636 0.73862469196 0.44100779295 0.1461814642 -0.21612200141
          0.024879217148 -0.21607525647 0.11672066897 -0.033268053085 0.50845766068 0.56447052956
          0.26583722234 0.75108158588 0.26633876562 0.41558867693 0.26442393661 0.75103509426
          0.56446808577 0.26445683837 -0.03326524049 -0.43675845861 -0.19380113482 -0.43672382832
          -0.10115844756 -0.25208953023 0.29328793287 0.34998774529 0.049123745412 0.53745424747
          0.049497753382 0.19987924397 0.048072516918 0.53741979599 0.34998589754 0.048096965998
          -0.25208738446 -0.68617808819 -0.44164723158 -0.68615585566 -0.34834805131 -0.49997866154
          0.048178113997 0.10548019409 -0.19713756442 0.29349482059 -0.19689430296 -0.045619271696
          -0.19781793654 0.29347270727 0.10547893494 -0.19780217111 -0.49997723103 -0.95374542475
          -0.70805287361 -0.95373445749 -0.61426115036 -0.7663667202 -0.21626992524 -0.15848857164
          -0.46237242222 0.029831467196 -0.46224451065 -0.31032255292 -0.4627224803 0.029820546508
          -0.15848940611 -0.46271437407 -0.76636576653 -1.2299342155 -0.98352277279 -1.2299312353
          -0.88942027092 -1.0417944193 -0.49056401849 -0.43246361613 -0.73711484671 -0.24401365221
          -0.73707187176 -0.58475494385 -0.73722594976 -0.24401672184 -0.43246385455 -0.73722368479
          -1.0417941809 -1.5078259706 -1.2611701488 -1.5078260899 -1.1669621468 -1.3194231987
          -0.76781922579 -0.70960694551 -1.014516592 -0.52112424374 -1.0145030022 -0.8620544076
          -1.0145403147 -0.52112418413 -0.70960783958 -1.0145390034 -1.3194223642 -1.0614414215
          -0.91593629122 -1.061596632 -0.86066961288 -0.94996124506 -0.62870883942 -0.59437996149
          -0.77170526981 -0.48577773571 -0.7718360424 -0.68317896128 -0.77136105299 -0.48577418923
          -0.59432816505 -0.77135777473 -0.94983196259 -0.18283349276 -0.17408499122 -0.1437933296
          -0.22036837041 -0.19752399623 -0.14385986328 -0.17406378686 1.2756233215 1.0948896408
          1.275698781 1.1548880339 0.96862977743 1.1549168825 1.0257945061 0.89730268717
          1.1366893053 1.0115718842 0.73629689217 0.69293564558 0.91457498074 0.59712928534
          0.55240517855 0.78226929903 0.55831164122 0.41191595793 0.91503661871 0.78265661001
          0.8041395545 0.66769987345 0.9134272933 0.78110784292 0.55824708939 0.41188183427
          0.6929269433 0.55240011215 0.91343706846 0.78114116192 1.1366485357 1.011580348
          1.001965642 0.80927735567 1.0019990206 0.73554337025 0.85395377874 0.42497509718
          0.37892842293 0.61657977104 0.23338644207 0.61690759659 0.49803423882 0.61566442251
          0.23335428536 0.37892657518 0.61568403244 0.85395264626 0.82174819708 0.62329155207
          0.8217664361 0.54740172625 0.66963690519 0.22699058056 0.17978601158 0.42481160164
          0.029171193019 0.42501011491 0.30247321725 0.42424330115 0.029152708128 0.17978568375
          0.42425724864 0.66963875294 0.62465244532 0.42072835565 0.62465715408 0.34281760454
          0.46875283122 0.013029340655 -0.035192452371 0.21680264175 -0.19074352086 0.21684862673
          0.090846024454 0.21667051315 -0.19074822962 -0.035192772746 0.21667356789 0.4687526226
          0.42298918962 0.2139582634 0.42297777534 0.13416771591 0.26361113787 -0.20449177921
          -0.25362181664 0.0049374424852 -0.41392156482 0.004814163316 -0.12444873899 0.0052835303359
          -0.41391012073 -0.25362101197 0.0052755968645 0.26361054182 0.23037579656 0.016568971798
          0.23034854233 -0.064973697066 0.067774944007 -0.41196498275 -0.46192386746 -0.19721259177
          -0.6267195344 -0.19750544429 -0.32982221246 -0.1963866502 -0.62669223547 -0.46192225814
          -0.1964058429 0.06777343899 0.060447312891 -0.1578156203 0.060405422002 -0.24099428952
          -0.10516663641 -0.59575283527 -0.64648914337 -0.37604019046 -0.81546896696 -0.37648904324
          -0.51165437698 -0.37477299571 -0.81542694569 -0.64648669958 -0.37480250001 -0.10516885668
          -0.074261784554 -0.29667386413 -0.074315838516 -0.38138228655 -0.24271963537 -0.7433180213
          -0.79480516911 -0.51903647184 -0.96760416031 -0.51961523294 -0.65742349625 -0.51740181446
          -0.96754992008 -0.79480206966 -0.51743990183 -0.24272246659 -0.16332107782 -0.38958394527
          -0.16338391602 -0.47572341561 -0.33448535204 -0.84422498941 -0.89645606279 -0.61578929424
          -1.072666049 -0.61646205187 -0.75670701265 -0.61388927698 -1.0726029873 -0.89645248652
          -0.61393356323 -0.33448863029 -0.19920474291 -0.42902433872 -0.19927234948 -0.51650071144
          -0.37295809388 -0.89093953371 -0.94392043352 -0.65878206491 -1.1231029034 -0.65950590372
          -0.80197995901 -0.6567376852 -1.1230350733 -0.94391655922 -0.65678536892 -0.37296161056
          -0.17783357203 -0.4109146893 -0.17790164053 -0.49963456392 -0.35406526923 -0.87936979532
          -0.93311136961 -0.64393347502 -1.1148118973 -0.64466267824 -0.78915566206 -0.64187431335
          -1.1147435904 -0.9331074357 -0.64192229509 -0.35406881571 -0.098815485835 -0.33485609293
          -0.098879829049 -0.42472305894 -0.27740693092 -0.80910634995 -0.86361598969 -0.57083767653
          -1.0473803282 -0.57152754068 -0.71782577038 -0.56889021397 -1.047315836 -0.8636122942
          -0.56893563271 -0.27741029859 0.034637823701 -0.20404754579 0.034580938518 -0.29495814443
          -0.14617222548 -0.68333899975 -0.73861223459 -0.4426805675 -0.92400199175 -0.44329154491
          -0.59117650986 -0.44095686078 -0.9239449501 -0.73860889673 -0.44099703431 -0.14617520571
          0.21612069011 -0.024876542389 0.21607413888 -0.11671660095 0.033269587904 -0.50844728947
          -0.56445938349 -0.26583072543 -0.75106734037 -0.26633223891 -0.41557973623 -0.2644174397
          -0.75102066994 -0.56445664167 -0.26445037127 0.033267110586 0.4367518127 0.19379849732
          0.43671736121 0.10115723312 0.25208580494 -0.29328280687 -0.34998178482 -0.049122508615
          -0.53744524717 -0.04949651286 -0.19987554848 -0.048071298748 -0.53741067648 -0.34997972846
          -0.048095766455 0.25208392739 0.686165452 0.44163858891 0.68614333868 0.34834083915
          0.49996897578 -0.048178941011 -0.10548016429 0.19713281095 -0.29349172115 0.19688954949
          0.045616965741 0.19781318307 -0.29346954823 -0.10547876358 0.19779740274 0.49996769428
          0.95372629166 0.70803773403 0.95371538401 0.6142475009 0.76635056734 0.21626266837
          0.15848220885 0.46236121655 -0.029834797606 0.46223330498 0.31031379104 0.46271127462
          -0.029823830351 0.15848311782 0.46270316839 0.76634973288 1.2299084663 0.98350095749
          1.2299053669 0.88939988613 1.0417716503 0.4905501008 0.43245059252 0.73709696531
          0.24400366843 0.73705399036 0.58473950624 0.73720806837 0.24400675297 0.43245086074
          0.73720580339 1.0417714119 1.5077934265 1.2611415386 1.5077935457 1.166934967
          1.3193936348 0.76779860258 0.70958721638 1.0144919157 0.52110749483 1.0144784451
          0.86203223467 1.0145156384 0.52110749483 0.70958805084 1.0145144463 1.3193928003
          1.0614171028 0.91591447592 1.0615737438 0.86065417528 0.94994181395 0.62869125605
          0.59436351061 0.77168238163 0.48576301336 0.77181792259 0.68316465616 0.77134120464
          0.48576024175 0.59431475401 0.77134275436 0.94980883598 0.18282566965 0.17407883704
          0.14378622174 0.22035583854 0.19750635326 0.14384788275 0.1740450263 -0.12960220873
          -3.9783776629e-06 0.12959294021 0.20931521058 -6.0825404944e-06 -0.20932050049 -3.4242461879e-06
          0.20921422541 -1.3418526805e-06 0.12955671549 -0.12956304848 -4.0140057536e-06 -0.20922340453
          -0.097190819681 -2.7480798508e-06 0.097185686231 0.15746130049 -2.2131537207e-06 -0.15746733546
          -2.8926531286e-06 0.15748293698 -3.4378324472e-06 0.097189888358 -0.097195833921 -2.7692383355e-06
          -0.15748825669 -0.068819224834 -1.8383652787e-06 0.068815439939 0.11143418401 -2.022278295e-06
          -0.11143787205 -1.8691338255e-06 0.11142939329 -1.744901283e-06 0.068814940751 -0.068818688393
          -1.9510921447e-06 -0.11143323779 -0.043442558497 -9.175785749e-07 0.043440751731 0.070380076766
          -8.9020102223e-07 -0.070381939411 -9.4813577789e-07 0.070380561054 -1.0033610351e-06 0.043439809233
          -0.043441787362 -9.9099997897e-07 -0.070382468402 -0.020618742332 -2.4903178542e-07 0.020618245006
          0.033463012427 -2.6565774647e-07 -0.033463511616 -2.6874900527e-07 0.033462185413 -2.818258622e-07
          0.0206172131 -0.020617850125 -3.4558777884e-07 -0.033462736756 0 0
          0 0 0 0 0 0
          0 0 0 0 0
        </DataArray>
        <DataArray type="Float32" Name="uz" format="ascii" RangeMin="-0.15608978271" RangeMax="0.15606291592">
          -0.00020080381364 0.00067981518805 -0.001657135901 -8.6775298769e-06 0.00020346813835 0.0016527348198
          -0.00068866851507 0.00034948094981 0.002716145711 0.00088473391952 -7.7036957009e-06 -0.0027272340376
          -0.00034457547008 -0.00089455657871 -0.0025819852017 -0.0010303640738 0.0025743865408 0.0010175461648
          0.0023869841825 -3.6483936583e-06 -0.0023847355042 0.0039538159035 -0.0039600590244 0.0039508226328
          -7.4228801168e-06 -0.0039589353837 -8.4395660451e-06 0.025845117867 -0.012979392894 -0.025956662372
          0.020456535742 -0.010274773464 -0.020566396415 0.033805791289 0.026567704976 0.06781809777
          0.053017098457 -0.013000615872 -0.067986935377 -0.041911382228 -0.0099273985252 -0.051601365209
          -0.032649774104 -0.026047103107 -0.019447186962 -4.8639332817e-05 -4.9499234592e-05 0.033846084028
          0.026018401608 -0.08395563066 -0.064876288176 0.025934135541 0.01939484477 0.067931838334
          0.051460124552 0.08382588625 0.064831674099 -0.067894391716 -0.053183019161 0.030959835276
          -0.015519211069 -0.031074032187 0.040451429784 0.081180751324 -0.015523029491 -0.081277921796
          -0.050118599087 -0.031088143587 -4.9863629101e-05 0.040459580719 -0.10048913956 0.030977640301
          0.081214807928 0.10034202784 -0.081243105233 0.034650728106 -0.017345577478 -0.034767929465
          0.045232575387 0.090844154358 -0.017346326262 -0.090877465904 -0.056020397693 -0.034764133394
          -5.0135215133e-05 0.045229054987 -0.11238896102 0.034639362246 0.090827345848 0.11222340167
          -0.090888492763 0.036383297294 -0.018204277381 -0.036500703543 0.047481376678 0.095388896763
          -0.018207615241 -0.095431752503 -0.058802165091 -0.036509346217 -5.0722945161e-05 0.047479081899
          -0.11801999062 0.036377418786 0.095387324691 0.11784299463 -0.095425121486 0.035872157663
          -0.017945284024 -0.035990327597 0.046803344041 0.094052828848 -0.01794979535 -0.094090938568
          -0.057965081185 -0.035998940468 -5.117157707e-05 0.046800944954 -0.11636658013 0.035863425583
          0.094047196209 0.11618501693 -0.09408557415 0.033002864569 -0.016513746232 -0.033120580018
          0.043053958565 0.086538590491 -0.016518136486 -0.086580209434 -0.053331267089 -0.033129561692
          -5.1618386351e-05 0.043051097542 -0.10707954317 0.032993804663 0.086532995105 0.1069002226
          -0.086574725807 0.027868168429 -0.013954902999 -0.02798482962 0.036352619529 0.07308998704
          -0.013958900236 -0.073140047491 -0.045049149543 -0.027992863208 -5.2026167396e-05 0.036350194365
          -0.090457476676 0.027860166505 0.073085054755 0.090286657214 -0.073135055602 0.020745195448
          -0.010406601243 -0.020860148594 0.027060030028 0.054432660341 -0.01040956378 -0.054495219141
          -0.033564079553 -0.020866133273 -5.2403967857e-05 0.02705819346 -0.067397356033 0.02073921077
          0.054428961128 0.067240335047 -0.054491519928 0.012066764757 -0.0060840370134 -0.012179574929
          0.015739860013 0.031700737774 -0.0060855788179 -0.031778920442 -0.019572900608 -0.012182692997
          -5.2749252063e-05 0.015738910064 -0.039301026613 0.012063648552 0.031698811799 0.039161767811
          -0.031776990741 0.0023819261696 -0.0012603149517 -0.0024923887104 0.0031073011924 0.0063326787204
          -0.001260150806 -0.006428251043 -0.0039595486596 -0.0024920783471 -5.3062402003e-05 0.0031074024737
          -0.007946388796 0.0023822388612 0.0063328715041 0.0078272270039 -0.0064284433611 -0.0076926518232
          0.0037578220945 0.0075844633393 -0.01003435161 -0.02005587332 0.0037598316558 0.019942605868
          0.01228309609 0.0075884824619 -5.334306843e-05 -0.010033110157 0.024669615552 -0.0076886303723
          -0.020053392276 -0.024768156931 0.019940119237 -0.017526784912 0.0086569264531 0.017420493066