<VTKFile type="UnstructuredGrid" version="1.0" byte_order="LittleEndian" header_type="UInt64">
  <UnstructuredGrid>
    <Piece NumberOfPoints="791" NumberOfCells="973">
      <PointData>
        <DataArray type="Float32" Name="ux" format="ascii" RangeMin="-0.04930620268" RangeMax="0.04907745868">
          -0.00030142450123 0.00020495393255 -0.0015551880933 0.00011028871086 0.00034858123399 0.001899533323
          -0.0012060787994 -0.00034399796277 0.00077060755575 -0.00037179121864 -0.00073119992157 -0.0035363601055
          -0.0009353258647 -0.0020008187275 -0.001502689789 -0.00048078471445 0.0030171347316 0.001611568965
          0.0012446664041 -0.0013772094389 -0.0030799750239 0.0021488398779 -0.0051888278686 0.0045748162083
          0.00077403936302 -0.002825781703 -0.00031519029289 0.010959046893 -0.0073913866654 -0.013829894364
          0.010861897841 -0.0069203507155 -0.013215383515 0.013899976388 0.013585002162 0.030047802255
          0.02910727635 -0.0068337041885 -0.029568929225 -0.01984147355 -0.0062232036144 -0.027433263138
          -0.018701748922 -0.011746475473 -0.010567829944 -0.0014341300121 -0.0011571552604 0.013010513037
          0.012494530529 -0.038251563907 -0.036241795868 0.0089298840612 0.0083856163546 0.026657043025
          0.025049401447 0.035371519625 0.033874578774 -0.032868348062 -0.031378060579 0.011212831363
          -0.0073871756904 -0.013846123591 0.014335935935 0.030641211197 -0.0069208205678 -0.030478334054
          -0.020193560049 -0.012110698968 -0.001322101918 0.013560897671 -0.039058212191 0.0094973426312
          0.027803134173 0.036427177489 -0.03321922943 0.011597482488 -0.0070912968367 -0.013492724858
          0.014994879253 0.031359385699 -0.0067867334001 -0.031445685774 -0.020341357216 -0.012363804504
          -0.0009481437155 0.014495498501 -0.03974782303 0.010484891012 0.029521116987 0.037854600698
          -0.033227831125 0.011974086054 -0.0067395898513 -0.013036843389 0.015647467226 0.031997855753
          -0.0066421674564 -0.032387327403 -0.020435869694 -0.012632326223 -0.00054565689061 0.01545219589
          -0.040319230407 0.011530724354 0.031295076013 0.039244391024 -0.033055156469 0.012468305416
          -0.0062648174353 -0.012447959743 0.016447016969 0.032766025513 -0.0063768369146 -0.033333882689
          -0.020440401509 -0.012808059342 -1.1227768482e-05 0.016585912555 -0.040870156139 0.012778111733
          0.033308628947 0.040833033621 -0.032799609005 0.01294187177 -0.0057427114807 -0.011802234687
          0.017235528678 0.033490568399 -0.0060318107717 -0.034101609141 -0.020324451849 -0.012887844816
          0.00057245441712 0.017723195255 -0.041216038167 0.014033259824 0.0352858603 0.042373694479
          -0.0323686786 0.013447516598 -0.0051712128334 -0.011106073856 0.018020190299 0.034192573279
          -0.0056403614581 -0.034720562398 -0.020126843825 -0.0128872348 0.0011794926831 0.018821658567
          -0.041438609362 0.015236820094 0.037135574967 0.043812450022 -0.031885001808 0.013843747787
          -0.0048361355439 -0.010701885447 0.018666872755 0.034862022847 -0.005474455189 -0.035545844585
          -0.020196756348 -0.01309212856 0.0015688717831 0.019718382508 -0.041962116957 0.016199348494
          0.038754101843 0.04513554275 -0.031763855368 0.014084022492 -0.004766466096 -0.010608522221
          0.019109239802 0.035434048623 -0.0055317329243 -0.036493599415 -0.020510304719 -0.013452781364
          0.0017235676059 0.020344760269 -0.04274174571 0.016842074692 0.040019381791 0.046236325055
          -0.032021425664 0.013967442326 -0.0051075122319 -0.010985936038 0.019139837474 0.035644479096
          -0.0059407474473 -0.037619262934 -0.021173726767 -0.014083757997 0.0014866145793 0.020488470793
          -0.043827924877 0.016980346292 0.040646314621 0.046805981547 -0.032740496099 0.013696914539
          -0.0057153115049 -0.011695588008 0.018954986706 0.035749543458 -0.0065718432888 -0.038814336061
          -0.022075373679 -0.014855095185 0.00098969519604 0.020330872387 -0.045125264674 0.016768569127
          0.040857233107 0.047113053501 -0.033836152405 0.013378250413 -0.0064888247289 -0.012641067617
          0.018675116822 0.035869777203 -0.0073123429902 -0.040002483875 -0.023113867268 -0.015675835311
          0.00034708133899 0.019980994985 -0.046591628343 0.016304397956 0.040746666491 0.047274500132
          -0.035240430385 0.013050685637 -0.0073246289976 -0.01369141601 0.018313832581 0.0359653458
          -0.0080289915204 -0.040921870619 -0.024114843458 -0.016344565898 -0.0003335379879 0.019494663924
          -0.047906048596 0.015689345077 0.040315777063 0.047219533473 -0.036707744002 0.012901655398
          -0.0079891346395 -0.014596020803 0.018068978563 0.036187797785 -0.0085681835189 -0.041433680803
          -0.024871699512 -0.016776768491 -0.00086766324239 0.019040603191 -0.048888165504 0.015066109598
          0.039760679007 0.047134231776 -0.037975668907 0.013153110631 -0.0082248551771 -0.015071781352
          0.018187249079 0.036756537855 -0.0086696371436 -0.041353933513 -0.025139305741 -0.016720134765
          -0.00098599132616 0.018895741552 -0.04930620268 0.014735492878 0.039396353066 0.047290492803
          -0.038771066815 0.013828177005 -0.0080011580139 -0.015109843574 0.018740687519 0.037737157196
          -0.0082895960659 -0.040743943304 -0.024912942201 -0.01616964303 -0.00064975477289 0.0192101188
          -0.049172699451 0.014862303622 0.039461765438 0.047854878008 -0.039066419005 0.014526591636
          -0.0077013247646 -0.015027648769 0.019332351163 0.038703400642 -0.0078580603004 -0.040099345148
          -0.024609204382 -0.015589948744 -0.00025017556618 0.01957173273 -0.048969201744 0.015065500513
          0.039607089013 0.048460118473 -0.039226476103 0.015015411191 -0.0075256195851 -0.015022236854
          0.019732357934 0.03939858079 -0.0075867758133 -0.039699409157 -0.024445738643 -0.015216005966
          1.6901025219e-06 0.019808320329 -0.0488887541 0.015178438276 0.039684183896 0.048878047615
          -0.039409130812 0.015243820846 -0.0074116070755 -0.014963623136 0.019931754097 0.039697583765
          -0.0074215754867 -0.039488051087 -0.024328581989 -0.015003790148 0.00014581427968 0.019959216937
          -0.048794221133 0.015297296457 0.039771348238 0.04907745868 -0.039416559041 0.0070463153534
          -0.0042142644525 -0.0079262470827 0.0090633798391 0.01930591464 -0.0041043832898 -0.018593965098
          -0.012237512507 -0.0072721275501 -0.00057920604013 0.0085843447596 -0.024041609839 0.0058467458002
          0.017235554755 0.022778514773 -0.020273685455 -0.0011329033878 -0.0045117228292 -0.0021770508029
          -0.00036993034882 0.0015438868431 0.0012125474168 0.0037609874271 -0.011023219675 0.0056721614674
          0.011584423482 -0.010860796086 0.0064087309875 0.012488078326 -0.013523530215 -0.013604867272
          -0.028094403446 -0.028792893514 0.00499791326 0.024676432833 0.016649985686 0.0058557530865
          0.027101844549 0.018063489348 0.0090058771893 0.010437017307 0.00028090566047 0.00080135883763
          -0.012422810309 -0.012720498256 0.032994192094 0.035324908793 -0.0085329823196 -0.0088632246479
          -0.024049762636 -0.025465050712 -0.032430797815 -0.033712197095 0.02856832929 0.030366111547
          -0.010709693655 0.0068287402391 0.012937310152 -0.013611612841 -0.028973376378 0.0063674612902
          0.028441468254 0.018854539841 0.011208612472 0.0011227767682 -0.012843884528 0.03657791391
          -0.0090017206967 -0.026156624779 -0.034326434135 0.031169123948 -0.010785521939 0.0069136428647
          0.012983808294 -0.013944696635 -0.029441989958 0.0066169672646 0.029809758067 0.019409148023
          0.011839794926 0.0011163828894 -0.013430214487 0.037712700665 -0.0096253920346 -0.02754269354
          -0.035476572812 0.031622976065 -0.011005965993 0.0067678652704 0.012750389054 -0.014469623566
          -0.029996728525 0.0066553414799 0.031040010974 0.019746497273 0.012317585759 0.00089108879911
          -0.014266238548 0.038595765829 -0.010537290014 -0.029246184975 -0.036811534315 0.031748194247
          -0.011368492618 0.0064446651377 0.01232707873 -0.015158647671 -0.030680606142 0.0065282285213
          0.032155264169 0.019908085465 0.012639461085 0.00048607829376 -0.015299679711 0.039319869131
          -0.011683570221 -0.031197605655 -0.038344148546 0.031650148332 -0.011894543655 0.0059039387852
          0.011664673686 -0.015991745517 -0.031467162073 0.0062057306059 0.033001918346 0.019827589393
          0.012760571204 -0.00010521907097 -0.016466163099 0.039759423584 -0.012948657386 -0.033230729401
          -0.039962336421 0.031285855919 -0.012412413955 0.0054453923367 0.011134778149 -0.016826780513
          -0.032336123288 0.0059341317974 0.033933375031 0.019845722243 0.01293263305 -0.00064494099934
          -0.017606958747 0.040335707366 -0.014165470377 -0.035250194371 -0.041629299521 0.031098207459
          -0.012574360706 0.0053816782311 0.011002623476 -0.017237311229 -0.032807853073 0.0060199769214
          0.035055819899 0.020199753344 0.013386944309 -0.00078874768224 -0.018289789557 0.041182111949
          -0.014919894747 -0.036687437445 -0.042779002339 0.03128606081 -0.012500004843 0.0056037418544
          0.011191722006 -0.017359623685 -0.033023305237 0.00635873992 0.036260124296 0.02078621462
          0.014018347487 -0.00063649029471 -0.018598826602 0.042200688273 -0.015269620344 -0.037615701556
          -0.043506711721 0.031791254878 -0.012535794638 0.0057876915671 0.011400214396 -0.017532506958
          -0.033370018005 0.0066213519312 0.03722390905 0.021290540695 0.014497992583 -0.00054687308148
          -0.018879488111 0.043126564473 -0.015536832623 -0.038359623402 -0.044205930084 0.032350182533
          -0.012674015015 0.0059697255492 0.011695973575 -0.017767162994 -0.033890135586 0.0068147089332
          0.037960696965 0.021746674553 0.014835103415 -0.00047001286293 -0.019141569734 0.043967917562
          -0.015744158998 -0.038983438164 -0.044929854572 0.033003740013 -0.012721601874 0.0062427846715
          0.01209465228 -0.017828688025 -0.034242764115 0.0070428522304 0.038410007954 0.022162901238
          0.015077630058 -0.00030034035444 -0.019141055644 0.044624976814 -0.015658451244 -0.039100289345
          -0.045268725604 0.033692341298 -0.012672576122 0.0065911281854 0.012588726357 -0.017704067752
          -0.034394200891 0.0073084356263 0.038610752672 0.022550089285 0.015263310634 -2.1382516934e-05
          -0.018876569346 0.045123863965 -0.015278474428 -0.038724541664 -0.045185558498 0.034392617643
          -0.01270976197 0.0069720773026 0.013175415806 -0.017626019195 -0.034698475152 0.0075622103177
          0.038716491312 0.022952513769 0.015379854478 0.0002543257142 -0.018590260297 0.04565096274
          -0.014853897505 -0.038263369352 -0.045151595026 0.035238236189 -0.012938894331 0.0071977018379
          0.013632369228 -0.017721587792 -0.035212311894 0.0076584629714 0.038616601378 0.023203061894
          0.01531229727 0.00037923859782 -0.018435385078 0.046033628285 -0.014521231875 -0.037875231355
          -0.04525892809 0.035998009145 -0.013336288743 0.0072772833519 0.013963854872 -0.017981432378
          -0.035913098603 0.007598919794 0.038314346224 0.023289034143 0.015079739504 0.00035414521699
          -0.018427757546 0.046224806458 -0.014317927882 -0.037600535899 -0.045510724187 0.036609366536
          -0.013806112111 0.0071845347993 0.014082442038 -0.018332932144 -0.036615930498 0.007361207623
          0.037829931825 0.023167325184 0.014684883878 0.00017060956452 -0.01855369471 0.046164441854
          -0.01428426709 -0.037471715361 -0.045831352472 0.036940138787 -0.014160448685 0.0070731826127
          0.014120028354 -0.018593916669 -0.0371170789 0.0071380585432 0.03737687692 0.023010240868
          0.014322383329 -6.8298409133e-06 -0.018657675013 0.046028431505 -0.014295197092 -0.03737270087
          -0.046037305146 0.037090245634 -0.014325516298 0.0070185908116 0.014134065248 -0.018735842779
          -0.037368036807 0.0070307850838 0.0372255072 0.022949924693 0.014171960764 -9.5179711934e-05
          -0.018760953099 0.045995716006 -0.014361183159 -0.037427708507 -0.046196635813 0.037159647793
          -0.0070884707384 0.0030617786106 0.0064247255214 -0.0089073190466 -0.018173139542 0.0029556720983
          0.015916133299 0.010276752524 0.0057584824972 -0.00021439415286 -0.0084259295836 0.020925218239
          -0.0059280786663 -0.016146808863 -0.02121357806 0.017602356151 0.00010423994536 0.0019061794737
          0.00074034498539 -0.00026451132726 -0.00123107736 -0.0011779657798 -0.0025199225638 -0.0031763243023
          -0.001638658694 0.00036220694892 0.00018398478278 -0.00088720960775 -0.0017767029349 -0.00041156483348
          -0.0010611645412 6.0214311816e-05 -0.0011625229381 0.0023170486093 0.00080667395378 0.0010016837623
          -0.0014196155826 -0.0015384674771 -0.0012305378914 -0.00069420220098 -0.0008390051662 -0.00080441427417
          -0.00039897975512 -8.8394313934e-05 3.5997836676e-05 0.00041321583558 0.00061329395976 0.00072509486927
          -3.2578006994e-06 -0.00030462309951 -0.0014778701589 -0.0022321385331 -0.0012441466097 -0.00080476206494
          -0.00020000226505 -0.00038527324796 0.00045433800551 2.0580795535e-05 0.0014209985966 -0.00050275499234
          0.00065663136775 -0.00057000824017 0.00093060679501 -0.0011550514027 -0.0029230287764 -0.0016182796098
          -0.0006431149086 0.00047085020924 -0.00032048296998 0.00099173863418 -9.8989357866e-06 0.0022554146126
          -0.0016137264902 0.000473114138 -0.0011320358608 0.0031461920589 -0.00062652752968 -0.0042241173796
          -0.0022953778971 -0.00033989400254 0.0016803512117 -0.00014598945563 0.0020036338829 3.9290946006e-05
          0.0039210058749 -0.0034682196565 0.00030892234645 -0.0020118211396 0 0
          0 0 0 0 0 0
          0 0 0 0 0
        </DataArray>
        <DataArray type="Float32" Name="uy" format="ascii" RangeMin="-0.75660806894" RangeMax="1.1324613094">
          0.86002606153 0.87921565771 0.88504129648 0.85338407755 0.86212605238 0.88683313131
          0.88117170334 0.85969412327 0.87435001135 0.8617554903 0.85304296017 0.87636560202
          0.86181282997 0.86305510998 0.87388753891 0.86166465282 0.87584388256 0.8629475832
          0.89252191782 0.87577033043 0.89418333769 0.89143568277 0.89312660694 0.89324718714
          0.87537133694 0.89169585705 0.84989893436 0.81155818701 0.79344373941 0.81160414219
          0.92119604349 0.90282219648 0.92129933834 0.78626269102 0.89571255445 0.79632312059
          0.90601980686 0.75867450237 0.75343829393 0.77520000935 0.8689969182 0.86349993944
          0.88480055332 0.74215716124 0.8531318903 0.77572774887 0.88536638021 0.76479113102
          0.87474107742 0.77366745472 0.8832193017 0.74212807417 0.85310256481 0.75347566605
          0.86347216368 0.7737121582 0.88326710463 0.79635083675 0.90599751472 0.65942329168
          0.64074784517 0.65948098898 0.63342964649 0.64406323433 0.60479110479 0.59962761402
          0.62205475569 0.58753150702 0.62248021364 0.6112061739 0.62084454298 0.58749181032
          0.59961032867 0.6208358407 0.64410597086 0.47194999456 0.45307376981 0.47199124098
          0.44572007656 0.45679965615 0.41616141796 0.41120821238 0.43415978551 0.3981872797
          0.4344291091 0.42291179299 0.43336325884 0.39815407991 0.41119343042 0.43334567547
          0.45683410764 0.26164072752 0.2425532937 0.26165169477 0.23522679508 0.24679324031
          0.20471823215 0.20001593232 0.22345869243 0.18597124517 0.22357156873 0.21183550358
          0.22314924002 0.18595458567 0.20001716912 0.2231657356 0.24679391086 0.042612928897
          0.023326037452 0.042607709765 0.016006326303 0.028090329841 -0.015516633168 -0.019941728562
          0.0040377643891 -0.035085611045 0.0039635836147 -0.0079952795058 0.0042536729015 -0.035069011152
          -0.019909534603 0.0042879050598 0.028074314818 -0.17007379234 -0.18951617181 -0.17010852695
          -0.19681917131 -0.18422815204 -0.22925926745 -0.23337180912 -0.20893239975 -0.24959541857
          -0.20920489728 -0.2213807106 -0.2081579566 -0.24956710637 -0.23335690796 -0.20816481113
          -0.18424709141 -0.36091136932 -0.38048216701 -0.360966295 -0.38775840402 -0.37471213937
          -0.42103290558 -0.42485165596 -0.40000674129 -0.44205126166 -0.40046438575 -0.41282373667
          -0.39873626828 -0.44201412797 -0.42484870553 -0.39874771237 -0.37474161386 -0.51525318623
          -0.53503149748 -0.5153259635 -0.54231971502 -0.52884018421 -0.57644063234 -0.5800319314
          -0.55473959446 -0.59813892841 -0.55534237623 -0.5679217577 -0.55303806067 -0.59809976816
          -0.58005720377 -0.55307894945 -0.52887332439 -0.62126404047 -0.64132523537 -0.62135118246
          -0.6486646533 -0.63478028774 -0.68363720179 -0.68710255623 -0.6613098979 -0.70596575737
          -0.66201680899 -0.67482721806 -0.65929156542 -0.70591527224 -0.68712794781 -0.6593259573
          -0.63482934237 -0.67036211491 -0.69069635868 -0.67043662071 -0.69813352823 -0.68395316601
          -0.73378181458 -0.73720282316 -0.71094936132 -0.75660806894 -0.71173703671 -0.72476434708
          -0.70875620842 -0.75654488802 -0.73722052574 -0.70882207155 -0.68395650387 -0.65737724304
          -0.67806518078 -0.65745425224 -0.6856302619 -0.67119979858 -0.72191506624 -0.72540163994
          -0.69867813587 -0.74515885115 -0.69947081804 -0.71273517609 -0.69644421339 -0.74509513378
          -0.72541481256 -0.6965007782 -0.67120635509 -0.58105933666 -0.60218715668 -0.58112931252
          -0.60994535685 -0.59530693293 -0.64684718847 -0.65051543713 -0.62326949835 -0.67042922974
          -0.62401872873 -0.63753980398 -0.62113368511 -0.67035132647 -0.65049624443 -0.62117964029
          -0.59531188011 -0.44434154034 -0.46589714289 -0.44439291954 -0.47385811806 -0.45913666487
          -0.51115065813 -0.51506543159 -0.48740521073 -0.53489518166 -0.48808351159 -0.50181895494
          -0.48550736904 -0.53482079506 -0.51505565643 -0.48556348681 -0.45911571383 -0.25403428078
          -0.27598389983 -0.25406566262 -0.28414827585 -0.26943650842 -0.32165250182 -0.3258805573
          -0.29790586233 -0.34540730715 -0.29845499992 -0.31235846877 -0.29634556174 -0.34533533454
          -0.3258446157 -0.29638162255 -0.26940825582 -0.019913047552 -0.042231626809 -0.019925406203
          -0.050592955202 -0.035951025784 -0.088193058968 -0.092752560973 -0.064529560506 -0.11185236275
          -0.064942725003 -0.078992538154 -0.063366219401 -0.11179322004 -0.092719867826 -0.063399381936
          -0.035906706005 0.24663391709 0.22399441898 0.24661783874 0.21545465291 0.22999760509
          0.17786461115 0.17297552526 0.20136854053 0.15434268117 0.20109803975 0.18695053458
          0.20212933421 0.15438081324 0.17299599946 0.20211017132 0.23000919819 0.53417366743
          0.51122933626 0.53415435553 0.50253647566 0.51700299978 0.46490523219 0.45972457528
          0.48829859495 0.44150087237 0.48816519976 0.47390013933 0.48867744207 0.44151598215
          0.45973482728 0.48868960142 0.51697891951 0.83206641674 0.80889010429 0.83205926418
          0.8000575304 0.8144620657 0.76240068674 0.75700217485 0.7857196331 0.73908388615
          0.78567361832 0.77132827044 0.78583365679 0.73908489943 0.75701028109 0.78583866358
          0.81447166204 1.1324591637 1.1092207432 1.1324613094 1.1003422737 1.1147264242
          1.0627102852 1.057246685 1.0859917402 1.0394262075 1.0859695673 1.0716067553
          1.0860207081 1.0394272804 1.0572353601 1.0860017538 1.1147319078 0.95978778601
          0.94218152761 0.95995515585 0.93572348356 0.94570225477 0.91295868158 0.90828597546
          0.92632514238 0.89945352077 0.92677593231 0.91779494286 0.92532527447 0.89944970608
          0.90817779303 0.92524909973 0.94550478458 0.90407264233 0.90653991699 0.91298818588
          0.89430910349 0.90046185255 0.91304439306 0.90662676096 0.9126932621 0.89543658495
          0.91277730465 0.80427712202 0.78726196289 0.80432194471 0.88877928257 0.78051280975
          0.89839798212 0.78990906477 0.86387056112 0.85867166519 0.87855362892 0.75469309092
          0.74973511696 0.77012443542 0.84913265705 0.73926705122 0.87911897898 0.77065616846
          0.86918979883 0.76040256023 0.87699407339 0.76861137152 0.84908074141 0.73922550678
          0.85861414671 0.74977850914 0.87704586983 0.76867240667 0.89835041761 0.78991675377
          0.65393567085 0.63636016846 0.65399646759 0.62945836782 0.63942354918 0.60259956121
          0.59768909216 0.61876416206 0.58642596006 0.61919087172 0.60860300064 0.61755007505
          0.58639329672 0.59769082069 0.61756396294 0.63945418596 0.46853995323 0.45070272684
          0.46858179569 0.44375008345 0.45416718721 0.4159129262 0.41120284796 0.43283337355
          0.39901316166 0.43310967088 0.42225256562 0.43202731013 0.39898192883 0.41118732095
          0.4320140779 0.4542016387 0.25975611806 0.24165798724 0.25978440046 0.23468804359
          0.24563249946 0.2058069706 0.20132942498 0.22354955971 0.18805965781 0.22365747392
          0.21253234148 0.22322407365 0.18805076182 0.20132547617 0.2232170403 0.24565757811
          0.041695404798 0.023365791887 0.041695285589 0.016389502212 0.027869904414 -0.01354260277
          -0.017730355263 0.0050554363988 -0.032146431506 0.0049622668885 -0.0064147613011 0.0052778506652
          -0.032132770866 -0.01773028262 0.0052505261265 0.027907256037 -0.17024707794 -0.18877229095
          -0.17026828229 -0.19572791457 -0.18371345103 -0.22666813433 -0.23055806756 -0.20727074146
          -0.24607476592 -0.2075433284 -0.21915471554 -0.20650103688 -0.24605165422 -0.23056228459
          -0.20651209354 -0.18371361494 -0.36011439562 -0.37890246511 -0.3601706028 -0.38587915897
          -0.37332758307 -0.41788542271 -0.42151680589 -0.39765232801 -0.43811607361 -0.39809682965
          -0.40997761488 -0.39636856318 -0.43808531761 -0.42152869701 -0.3963957727 -0.37334612012
          -0.51387304068 -0.53291213512 -0.51394402981 -0.53992301226 -0.52690541744 -0.57285135984
          -0.57627630234 -0.55188971758 -0.59380525351 -0.55248677731 -0.56462109089 -0.55019831657
          -0.59376424551 -0.5763065815 -0.55024063587 -0.52692759037 -0.61980491877 -0.63907164335
          -0.61988508701 -0.64612877369 -0.63274335861 -0.67981278896 -0.68310499191 -0.65826565027
          -0.70136713982 -0.65897762775 -0.67131412029 -0.65625417233 -0.70131182671 -0.68311923742
          -0.65631580353 -0.63275325298 -0.66885912418 -0.68840575218 -0.66892814636 -0.69555574656
          -0.68186402321 -0.72993588448 -0.7331931591 -0.70789122581 -0.75199049711 -0.70867162943
          -0.72122299671 -0.70569694042 -0.75191825628 -0.73318946362 -0.70576548576 -0.68185007572
          -0.65588849783 -0.67578715086 -0.65596687794 -0.68306279182 -0.66911923885 -0.71806782484
          -0.72137600183 -0.69562375546 -0.74051612616 -0.69641560316 -0.70919716358 -0.69339936972
          -0.74045413733 -0.72139382362 -0.69347059727 -0.6691313982 -0.58014202118 -0.60034900904
          -0.58022558689 -0.60774552822 -0.59368979931 -0.64311033487 -0.64654839039 -0.62048238516
          -0.66572839022 -0.6212375164 -0.63418185711 -0.61836743355 -0.66567707062 -0.64657843113
          -0.61842656136 -0.59371501207 -0.44471675158 -0.46512690187 -0.44477888942 -0.47264224291
          -0.45863932371 -0.50807893276 -0.51172858477 -0.48548474908 -0.53067821264 -0.48615729809
          -0.49919378757 -0.48359915614 -0.5306212306 -0.5117367506 -0.48365727067 -0.45863395929
          -0.25582003593 -0.27653178573 -0.25585702062 -0.28422823548 -0.2702793777 -0.31973052025
          -0.32365074754 -0.29720622301 -0.34224975109 -0.29776874185 -0.31092768908 -0.2956443131
          -0.34220165014 -0.32365974784 -0.29571262002 -0.27024564147 -0.022884214297 -0.043929796666
          -0.022902721539 -0.051809553057 -0.037948738784 -0.087365821004 -0.091612927616 -0.064957082272
          -0.10977048427 -0.065377995372 -0.07865640521 -0.063784621656 -0.10973414779 -0.091615438461
          -0.063835516572 -0.037902534008 0.24286235869 0.22147795558 0.24285912514 0.21340948343
          0.22717544436 0.17786839604 0.17329905927 0.20011867583 0.1556328088 0.19984209538
          0.18646600842 0.2008742094 0.15564870834 0.1732853502 0.20083576441 0.22721335292
          0.52947336435 0.50782507658 0.52947258949 0.49960047007 0.51326346397 0.46409118176
          0.45923164487 0.48619037867 0.44200626016 0.48604866862 0.47258034348 0.48657494783
          0.44200485945 0.45920327306 0.48653969169 0.51329129934 0.82611399889 0.80428081751
          0.82611048222 0.79596245289 0.80954551697 0.76049220562 0.7554282546 0.78246301413
          0.73853605986 0.78241461515 0.76889842749 0.78258067369 0.73853445053 0.75540566444
          0.782574296 0.80954754353 1.1254022121 1.103497982 1.1254014969 1.0951381922
          1.1086964607 1.0596656799 1.0545172691 1.0816035271 1.0377292633 1.0815881491
          1.0680520535 1.0816342831 1.0377289057 1.0545157194 1.0816329718 1.1086912155
          0.95245492458 0.93582928181 0.95262515545 0.92973053455 0.93912017345 0.9085034132
          0.90405857563 0.92091816664 0.89594483376 0.92137926817 0.91298300028 0.91993838549
          0.89595317841 0.90397047997 0.91985213757 0.93892925978 0.90272670984 0.90525126457
          0.91193109751 0.89265942574 0.89901673794 0.91199034452 0.90535110235 0.7146974802
          0.71393930912 0.71328598261 0.71395421028 0.714366436 0.71624147892 0.71447914839
          0.71388721466 0.71430265903 0.71335828304 0.71476757526 0.71408617496 0.71617054939
          0.52518999577 0.52424496412 0.52384877205 0.52372831106 0.52473968267 0.52588921785
          0.52481305599 0.52373343706 0.52474015951 0.52381336689 0.52513968945 0.52417868376
          0.52589267492 0.32864549756 0.32855251431 0.32738298178 0.32590040565 0.32747867703
          0.32793539762 0.32729965448 0.32591158152 0.32747977972 0.3274050653 0.32863944769
          0.3285715878 0.32792302966 0.15970230103 0.16013455391 0.15875838697 0.15627926588
          0.15822957456 0.1578001976 0.15783259273 0.15628811717 0.15822121501 0.158753708
          0.15967518091 0.16011531651 0.15778723359 0.046257797629 0.04793907702 0.04574425891
          0.041421197355 0.043861456215 0.042260076851 0.043120872229 0.041425768286 0.043862715364
          0.045758333057 0.046261876822 0.047941155732 0.042257491499 0 0
          0 0 0 0 0 0
          0 0 0 0 0
        </DataArray>
        <DataArray type="Float32" Name="uz" format="ascii" RangeMin="-0.16887436807" RangeMax="0.16919462383">
          0.011697909795 -0.0058808862232 0.013610281982 0.015364266932 0.011670617387 0.013595722616
          -0.0058999047615 -0.011938267387 -0.029318390414 -0.031017513946 -0.015793932602 -0.029214369133
          -0.011959096417 -0.031008319929 0.029234964401 0.030717570335 0.029195539653 0.030683392659
          -0.0152355358 -0.035713769495 -0.015154861845 -0.030172251165 -0.030050156638 0.029492137954
          0.035265922546 0.029510658234 5.273466013e-05 -0.022424478084 0.011760837398 0.023262185976
          -0.014785391279 0.008148402907 0.015871338546 -0.029384113848 -0.019691869617 -0.059425421059
          -0.039359655231 0.011754236184 0.06019006297 0.037177708 0.0076114037074 0.038630280644
          0.024910127744 0.023250481114 0.014473292045 0.00037455721758 0.00033860447002 -0.029455676675
          -0.019244663417 0.074275150895 0.049017589539 -0.022561186925 -0.014228506945 -0.059545084834
          -0.038159999996 -0.073498174548 -0.04838886112 0.060156580061 0.040430337191 -0.029368929565
          0.015022419393 0.029800832272 -0.038317710161 -0.077239662409 0.015142659657 0.077882178128
          0.048055663705 0.030076203868 0.0003300831595 -0.038247421384 0.096131004393 -0.029135406017
          -0.077124677598 -0.095437705517 0.077693082392 -0.034531507641 0.017391696572 0.034663870931
          -0.044912856072 -0.09047357738 0.017589110881 0.090907111764 0.056013412774 0.035063505173
          0.00025929982075 -0.044791698456 0.11223778129 -0.034119606018 -0.09021589905 -0.11165715754
          0.090675339103 -0.037350680679 0.018679503351 0.037298358977 -0.04853053391 -0.097686588764
          0.018914094195 0.098049141467 0.060374956578 0.03778000921 0.00021137123986 -0.048388946801
          0.12105741352 -0.036874692887 -0.097406961024 -0.1205381155 0.097753591835 -0.037577398121
          0.018760310486 0.037466909736 -0.048781715333 -0.098229259253 0.019055396318 0.098613895476
          0.060689244419 0.038059968501 0.00022415172134 -0.048604026437 0.12169753015 -0.036991864443
          -0.097865857184 -0.12115955353 0.098240673542 -0.035107426345 0.017542779446 0.035003114492
          -0.045535039157 -0.09175772965 0.017879167572 0.092225112021 0.056735318154 0.035673838109
          0.000254807499 -0.045330673456 0.1137547344 -0.034452445805 -0.091358996928 -0.11314506084
          0.091801099479 -0.029949523509 0.015099255368 0.030039776117 -0.038870092481 -0.07842939347
          0.015381486155 0.07900467515 0.048631686717 0.030605405569 0.00030497249099 -0.038709454238
          0.097432889044 -0.029412858188 -0.078109793365 -0.096740916371 0.078639425337 -0.022453894839
          0.011569194496 0.02288572304 -0.029225639999 -0.05910519138 0.011718103662 0.059792004526
          0.036882486194 0.023188855499 0.00036358600482 -0.029142484069 0.073764666915 -0.022166989744
          -0.058937564492 -0.072976313531 0.05959623307 -0.013151881285 0.0071330866776 0.013957074843
          -0.017267366871 -0.035112727433 0.0071144313551 0.0358415097 0.022205309942 0.013918108307
          0.00038227584446 -0.017279347405 0.04426657781 -0.013194220141 -0.035135544837 -0.043463237584