<VTKFile type="UnstructuredGrid" version="1.0" byte_order="LittleEndian" header_type="UInt64">
  <UnstructuredGrid>
    <Piece NumberOfPoints="791" NumberOfCells="973">
      <PointData>
        <DataArray type="Float32" Name="ux" format="ascii" RangeMin="-1.7245599031" RangeMax="0.92245787382">
          -0.18339340389 -0.18630957603 -0.18551658094 -0.18311451375 -0.18514800072 -0.1855994463
          -0.19014294446 -0.18551123142 -0.19048380852 -0.18834091723 -0.18619227409 -0.19545653462
          -0.18821100891 -0.19114246964 -0.18310692906 -0.18252237141 -0.18294794858 -0.18228764832
          -0.18854933977 -0.19311374426 -0.19288757443 -0.19086058438 -0.19669879973 -0.1812569499
          -0.18365305662 -0.18379692733 -0.18396052718 -0.00057197641581 -0.02610318549 -0.033340387046
          -0.11011745781 -0.13182415068 -0.13943696022 0.002642583102 -0.10683960468 0.024009265006
          -0.088974036276 -0.025772023946 -0.059472125024 -0.044292304665 -0.13035951555 -0.1576141268
          -0.14702425897 -0.032405439764 -0.1338416487 -0.018351515755 -0.12468488514 0.0024474307429
          -0.10709769279 -0.07089548558 -0.1701207906 -0.0011280300096 -0.10946458578 0.022507023066
          -0.090468615294 0.032118812203 -0.08210991323 -0.060799907893 -0.16302898526 0.13582774997
          0.1102450639 0.10212343186 0.1410908401 0.16313588619 0.11070803553 0.073689930141
          0.090917654335 0.10267158598 0.11890056729 0.14185634255 0.063158884645 0.13778142631
          0.16472233832 0.17425523698 0.074381448328 0.28642812371 0.26108667254 0.2528398931
          0.2930919528 0.31533795595 0.26057124138 0.22050070763 0.24065433443 0.25078079104
          0.2698880136 0.29446056485 0.21123363078 0.28970703483 0.32016056776 0.32947781682
          0.22425673902 0.43188819289 0.40508571267 0.39566171169 0.4397341609 0.46340361238
          0.40397769213 0.36144021153 0.38306459785 0.39279103279 0.41463747621 0.44099846482
          0.35218530893 0.4350220561 0.46904540062 0.47868356109 0.36574590206 0.55592113733
          0.5267971158 0.5163526535 0.56459778547 0.59066092968 0.52583938837 0.4802518189
          0.5034686327 0.51357865334 0.53719580173 0.56586682796 0.47049242258 0.55906510353
          0.59597378969 0.60726672411 0.48446801305 0.65056228638 0.61985653639 0.60856288671
          0.65933597088 0.68704891205 0.6192304492 0.57096892595 0.59529036283 0.60623025894
          0.63097822666 0.66059416533 0.56002932787 0.65330183506 0.69144529104 0.70386654139
          0.57487052679 0.71633577347 0.67999893427 0.66762340069 0.72522395849 0.7573595643
          0.67903375626 0.62452846766 0.65170872211 0.66502863169 0.69251197577 0.72588980198
          0.61126381159 0.71720069647 0.7598952651 0.77488398552 0.62785410881 0.7582026124
          0.71467101574 0.70043957233 0.76795238256 0.80612152815 0.7130035162 0.64928984642
          0.68106150627 0.69638550282 0.72899448872 0.76823824644 0.63374119997 0.75808894634
          0.80809378624 0.82612270117 0.65332984924 0.78222990036 0.73210811615 0.71488332748
          0.79420602322 0.83915138245 0.73135954142 0.65805232525 0.69399124384 0.71223521233
          0.74908262491 0.7945817709 0.63931423426 0.78283321857 0.84091162682 0.86244750023
          0.66120201349 0.7753136754 0.71828395128 0.69807136059 0.78943318129 0.84036487341
          0.71744263172 0.63393753767 0.67489027977 0.6956178546 0.73799544573 0.7895835042
          0.61209726334 0.77567887306 0.8419367075 0.86675333977 0.63661593199 0.72224462032
          0.6571983695 0.63378787041 0.73784303665 0.79599058628 0.65685039759 0.56346684694
          0.60826987028 0.63303428888 0.67968332767 0.73793554306 0.5378818512 0.722432971
          0.79647052288 0.82486522198 0.56437015533 0.62646561861 0.55275338888 0.52631533146
          0.6433853507 0.70916318893 0.55198663473 0.44773685932 0.4975143671 0.52578085661
          0.57770520449 0.64263945818 0.41790917516 0.62475717068 0.70790290833 0.74069058895
          0.44739633799 0.48994413018 0.40694603324 0.37746608257 0.50850743055 0.58233064413
          0.40699794888 0.2905715704 0.34568157792 0.37807875872 0.43522581458 0.50781184435
          0.25675526261 0.48814487457 0.580108881 0.61690211296 0.28886416554 0.30264818668
          0.21396559477 0.18204213679 0.32290789485 0.40187942982 0.21505975723 0.09129216522
          0.14919430017 0.18477158248 0.24462091923 0.3225055933 0.05437169224 0.3017911911
          0.39963874221 0.43902745843 0.087999120355 0.067165091634 -0.023145796731 -0.05577365309
          0.087674222887 0.16826456785 -0.022650435567 -0.14840370417 -0.089316010475 -0.053834252059
          0.0078123025596 0.086617350578 -0.18593126535 0.064856894314 0.16467037797 0.2054400444
          -0.15192517638 -0.22790457308 -0.31974974275 -0.35338753462 -0.20704008639 -0.12478005886
          -0.3193629384 -0.4465970099 -0.38697195053 -0.35099375248 -0.28819459677 -0.20827260613
          -0.48470553756 -0.23062892258 -0.12880562246 -0.087038062513 -0.45076295733 -0.58923310041
          -0.68383961916 -0.71794617176 -0.56762570143 -0.48336672783 -0.68307411671 -0.81553328037
          -0.75335878134 -0.71567845345 -0.65104687214 -0.56829440594 -0.85499995947 -0.5906471014
          -0.48609960079 -0.4441113174 -0.81897586584 -1.0030837059 -1.1014025211 -1.135737896
          -0.98187589645 -0.89501661062 -1.1010349989 -1.2388137579 -1.1741037369 -1.1341270208
          -1.0679284334 -0.98254323006 -1.2797054052 -1.004109025 -0.89711171389 -0.8548540473
          -1.2409616709 -1.4431837797 -1.5429255962 -1.5764349699 -1.4225724936 -1.3356739283
          -1.5431548357 -1.6831357479 -1.6171437502 -1.5765004158 -1.5097020864 -1.4232094288
          -1.7245599031 -1.4442812204 -1.3368461132 -1.2951990366 -1.6839621067 -0.18877868354
          -0.19533009827 -0.20638398826 -0.17734654248 -0.17014347017 -0.18153129518 -0.19724853337
          -0.19844579697 -0.17710413039 -0.18450763822 -0.16929510236 -0.21270954609 -0.16178013384
          -0.15505501628 -0.15787047148 -0.21584786475 -0.1877759099 -0.19338643551 -0.18773818016
          -0.18833564222 -0.1844048053 -0.18221522868 -0.18042135239 -0.19777962565 -0.20364129543
          -0.20522344112 -0.23580525815 -0.24762055278 -0.2522354722 -0.19667200744 -0.23217068613
          -0.19094601274 -0.22088554502 -0.20467850566 -0.212743029 -0.2079244554 -0.24813495576
          -0.26597943902 -0.25688865781 -0.20809261501 -0.25368562341 -0.20209684968 -0.24343965948
          -0.19737367332 -0.23228506744 -0.21362842619 -0.26985299587 -0.20041953027 -0.23628875613
          -0.19246374071 -0.22076107562 -0.18878345191 -0.21469245851 -0.21120552719 -0.26470521092
          -0.29897382855 -0.32003486156 -0.32732880116 -0.29369163513 -0.2751584053 -0.32009151578
          -0.35108309984 -0.33592835069 -0.32819139957 -0.31229919195 -0.29349133372 -0.35880666971
          -0.29858741164 -0.27433383465 -0.26547861099 -0.3498853147 -0.37769749761 -0.41000780463
          -0.4210267067 -0.3701197505 -0.34168532491 -0.41006535292 -0.45733335614 -0.43462985754
          -0.421618402 -0.39883476496 -0.36961907148 -0.47031337023 -0.37650465965 -0.34013432264
          -0.3269418776 -0.45644512773 -0.46576485038 -0.51037245989 -0.52526319027 -0.45642906427
          -0.41739243269 -0.50971364975 -0.57208073139 -0.54306513071 -0.52411854267 -0.49521756172
          -0.45671349764 -0.59138983488 -0.46561387181 -0.41797250509 -0.3991779983 -0.57353055477
          -0.55370467901 -0.60942918062 -0.62771862745 -0.54366254807 -0.49539747834 -0.6088629365
          -0.6848885417 -0.65008366108 -0.6255069375 -0.59147548676 -0.54430419207 -0.70952171087
          -0.55470520258 -0.49746108055 -0.47453975677 -0.68790692091 -0.62320572138 -0.68725985289
          -0.707241714 -0.61274963617 -0.5581818819 -0.68659210205 -0.77388226986 -0.73396271467
          -0.70497262478 -0.66686964035 -0.61334353685 -0.80230724812 -0.6242672801 -0.56025820971
          -0.53502231836 -0.77682936192 -0.64481693506 -0.71359670162 -0.73494362831 -0.63357359171
          -0.57517969608 -0.71343314648 -0.80770808458 -0.76437878609 -0.73347073793 -0.69182020426
          -0.6339713335 -0.83803522587 -0.64573591948 -0.57673960924 -0.55006605387 -0.80968278646
          -0.60652011633 -0.6789752841 -0.70208442211 -0.59342360497 -0.53157955408 -0.67869716883
          -0.77901542187 -0.73254227638 -0.70089393854 -0.65560203791 -0.59382742643 -0.80999732018
          -0.60721540451 -0.53253620863 -0.50405317545 -0.7806301713 -0.53450608253 -0.61134463549
          -0.63684129715 -0.51921290159 -0.45244514942 -0.61074721813 -0.71938174963 -0.66868877411
          -0.6355856061 -0.58590722084 -0.5191642046 -0.75200277567 -0.53396439552 -0.45259693265
          -0.42163091898 -0.72020667791 -0.44855597615 -0.53040611744 -0.556856215 -0.43276667595
          -0.36208176613 -0.53029888868 -0.6453474164 -0.59130108356 -0.55670511723 -0.50353270769
          -0.43274503946 -0.67963296175 -0.44847145677 -0.3616797328 -0.32878541946 -0.64538067579
          -0.34569564462 -0.42814719677 -0.45414456725 -0.33054772019 -0.25979667902 -0.42814943194
          -0.542783916 -0.48908177018 -0.45395025611 -0.40112933517 -0.33069103956 -0.57707935572
          -0.34613117576 -0.26005533338 -0.22724729776 -0.54306280613 -0.21440820396 -0.29366096854
          -0.3195348084 -0.19940723479 -0.1309774965 -0.29387164116 -0.40419438481 -0.35276648402
          -0.31915432215 -0.26822707057 -0.200110659 -0.43790641427 -0.21586275101 -0.13237333298
          -0.10032623261 -0.40549144149 -0.057389650494 -0.13497523963 -0.16110664606 -0.041849955916
          0.025724641979 -0.13412100077 -0.24171228707 -0.19188790023 -0.15894557536 -0.10897419602
          -0.042130276561 -0.2748902142 -0.057877928019 0.024069217965 0.05636798963 -0.24428029358
          0.10708183795 0.028830820695 0.0018102938775 0.12320341915 0.19208192825 0.028984608129
          -0.079207859933 -0.028741823509 0.0035059987567 0.054894667119 0.1223217845 -0.11240962893
          0.10516674072 0.18906675279 0.22303071618 -0.082090653479 0.25862541795 0.17922434211
          0.15185593069 0.27458223701 0.34421378374 0.17967946827 0.070398911834 0.12123183161
          0.15365673602 0.20570221543 0.27372258902 0.03717168048 0.25643891096 0.34073999524
          0.3749409616 0.067266978323 0.39280158281 0.31471782923 0.28796216846 0.40870016813
          0.47726804018 0.31526640058 0.20700567961 0.25732648373 0.28974938393 0.34088775516
          0.40808260441 0.1739076376 0.39157739282 0.47505831718 0.50822752714 0.20442505181
          0.52222907543 0.44227099419 0.41560059786 0.53813445568 0.60798221827 0.44264340401
          0.33118855953 0.38338130713 0.41671091318 0.46882924438 0.53801828623 0.29784226418
          0.52178955078 0.60681861639 0.64003652334 0.32989448309 0.65719491243 0.57545059919
          0.5485791564 0.67390459776 0.74524903297 0.57562059164 0.46090394258 0.51490193605
          0.54898118973 0.60261470079 0.67389601469 0.42692357302 0.65729475021 0.74509042501
          0.77858108282 0.46035575867 0.80128794909 0.72000324726 0.69306927919 0.8178858161
          0.88867801428 0.72014296055 0.60482621193 0.6592143178 0.69294124842 0.74721539021
          0.81801861525 0.57095050812 0.80169594288 0.88917803764 0.92245787382 0.60483026505
          -0.18510308862 -0.18620824814 -0.18598644435 -0.18562683463 -0.18450982869 -0.18889051676
          -0.1907479912 -0.18793842196 -0.19151373208 -0.18720272183 -0.18679273129 -0.18815949559
          -0.18956422806 -0.18651479483 -0.184662655 -0.1864373982 -0.18772168458 -0.19032348692
          -0.18822523952 -0.1869699657 -0.18561148643 -0.18586276472 -0.18454158306 -0.15331692994
          -0.15140102804 -0.14847509563 -0.14873968065 -0.15117263794 -0.15232360363 -0.15132112801
          -0.15090933442 -0.15155541897 -0.15355706215 -0.15107299387 -0.15324045718 -0.15053784847
          -0.10034874082 -0.097714990377 -0.097311004996 -0.099432006478 -0.1006071195 -0.10243991017
          -0.10178084671 -0.10243090987 -0.10311353207 -0.10460244864 -0.10429804027 -0.10511251539
          -0.10358410329 -0.05762662366 -0.057517174631 -0.057316556573 -0.057464625686 -0.057380698621
          -0.058290429413 -0.057335078716 -0.057295203209 -0.05728937313 -0.056854002178 -0.058347262442
          -0.057323779911 -0.058547146618 -0.028817040846 -0.030262479559 -0.030762730166 -0.028505776078
          -0.028172679245 -0.028297211975 -0.026844460517 -0.024791879579 -0.025289325044 -0.021979765967
          -0.025720056146 -0.022881355137 -0.027736572549 -0.010016566142 -0.012302514166 -0.013442883268
          -0.010771133937 -0.010022908449 -0.0098753189668 -0.0083707459271 -0.0060735791922 -0.0072705913335
          -0.0032073021866 -0.0090435417369 -0.0054587530904 -0.01002114173 -9.0605564718e-11 1.1137971656e-09
          -2.0590190664e-10 6.4876238062e-12 2.4789881953e-11 1.5055939134e-11 -1.0079479786e-11 2.9542879509e-14
          -1.9558415963e-14 0 0 0 -7.8519080072e-14
        </DataArray>
        <DataArray type="Float32" Name="uy" format="ascii" RangeMin="-0.76415801048" RangeMax="0.80618607998">
          0.40280216932 0.39471492171 0.39225152135 0.40722358227 0.41394659877 0.40117973089
          0.40601077676 0.40178975463 0.39481574297 0.40092796087 0.40654799342 0.40820047259
          0.41390025616 0.40856355429 0.39721590281 0.40277436376 0.40644803643 0.40915706754
          0.38425424695 0.4033728838 0.392275244 0.38341116905 0.3912397027 0.39146405458
          0.40449652076 0.38583666086 0.40710094571 0.061311416328 0.037522740662 0.062490656972
          0.26301917434 0.24137587845 0.26455450058 0.027700161561 0.23252315819 0.041563171893
          0.24483992159 -0.011147604324 -0.018551455811 0.012620955706 0.19858723879 0.19057494402
          0.21867352724 -0.035603638738 0.17782656848 0.01303475257 0.21966993809 -0.001309453859
          0.2072160244 0.011745662428 0.21718895435 -0.033627122641 0.18040443957 -0.015352077782
          0.19533367455 0.012641574256 0.21907626092 0.043224509805 0.24686940014 -0.15925651789
          -0.18542458117 -0.15894170105 -0.1956102401 -0.17927035689 -0.2383762002 -0.24453960359
          -0.211557284 -0.26543015242 -0.21189115942 -0.22802959383 -0.21095520258 -0.2646471262
          -0.24391065538 -0.21128225327 -0.17835722864 -0.36604651809 -0.39353370667 -0.36655402184
          -0.40322032571 -0.38474497199 -0.45031663775 -0.45567473769 -0.42092716694 -0.47963654995
          -0.42142391205 -0.43861714005 -0.41949936748 -0.47968500853 -0.4555132091 -0.41855573654
          -0.38602486253 -0.51606112719 -0.54632478952 -0.51771974564 -0.55531173944 -0.53497666121
          -0.60564637184 -0.61121088266 -0.57549190521 -0.63655632734 -0.57518661022 -0.59294557571
          -0.57389378548 -0.63719457388 -0.61072939634 -0.57068496943 -0.53905332088 -0.60041153431
          -0.63312393427 -0.60282981396 -0.64319294691 -0.62134194374 -0.69705092907 -0.70258784294
          -0.66438049078 -0.73011100292 -0.66445958614 -0.68377429247 -0.66282039881 -0.73136460781
          -0.70384722948 -0.66046833992 -0.62575674057 -0.62588334084 -0.65999788046 -0.62767535448
          -0.6715760231 -0.64899426699 -0.72812008858 -0.7340349555 -0.69314533472 -0.76284718513
          -0.69346636534 -0.71455276012 -0.69141334295 -0.76415801048 -0.73582494259 -0.69080990553
          -0.65167534351 -0.59760445356 -0.63638323545 -0.59832429886 -0.65041512251 -0.62513870001
          -0.71407204866 -0.72128564119 -0.67432129383 -0.75336509943 -0.67503249645 -0.69911152124
          -0.67273437977 -0.75454932451 -0.72349816561 -0.67296677828 -0.62653678656 -0.52563619614
          -0.57078397274 -0.5263197422 -0.587654531 -0.55843752623 -0.66125613451 -0.66969686747
          -0.61506068707 -0.70703685284 -0.61593788862 -0.64406323433 -0.61370521784 -0.7087085247
          -0.67290854454 -0.6146800518 -0.55974525213 -0.41264459491 -0.46620434523 -0.41419693828
          -0.48596820235 -0.45164394379 -0.57240480185 -0.58234190941 -0.51855123043 -0.62526834011
          -0.51926702261 -0.5527498126 -0.51691067219 -0.62747001648 -0.58647543192 -0.5183185935
          -0.4534919858 -0.26420250535 -0.32514208555 -0.26574152708 -0.34760022163 -0.30891308188
          -0.44585379958 -0.45778796077 -0.38470494747 -0.50609332323 -0.38530784845 -0.42338523269
          -0.38371482491 -0.50838261843 -0.46171632409 -0.38488548994 -0.31115296483 -0.092721834779
          -0.16200622916 -0.094697512686 -0.18732069433 -0.14405058324 -0.29751196504 -0.31163457036
          -0.22932970524 -0.36507996917 -0.22979444265 -0.27249062061 -0.22918434441 -0.36765831709
          -0.3161841929 -0.23022089899 -0.14702410996 0.084262743592 0.0059060365893 0.08216304332
          -0.022582352161 0.026065250859 -0.14742918313 -0.16455075145 -0.071032911539 -0.2233171463
          -0.070721998811 -0.11886234581 -0.071574702859 -0.2255256623 -0.1678391695 -0.070983998477
          0.022423386574 0.25298789144 0.16566205025 0.25080043077 0.13324193656 0.18733265996
          -0.005255586002 -0.024701153859 0.079438284039 -0.08949508518 0.079963684082 0.026390781626
          0.078868374228 -0.091862082481 -0.028157280758 0.078939042985 0.18371610343 0.39226010442
          0.29848504066 0.38983306289 0.26400122046 0.32148224115 0.11614575982 0.095229059458
          0.20655572414 0.026250204071 0.20712088048 0.14981149137 0.20549237728 0.023838236928
          0.091367699206 0.20546706021 0.31761610508 0.48963013291 0.39379662275 0.48697128892
          0.35868662596 0.41735428572 0.20814739168 0.18682533503 0.30007252097 0.11712498963
          0.30062684417 0.2423889488 0.29830411077 0.11440578103 0.1824836731 0.29882851243
          0.41290318966 0.54352575541 0.44588041306 0.54025608301 0.41054627299 0.47033363581
          0.25730925798 0.23548001051 0.35025402904 0.16478179395 0.35125881433 0.29219546914
          0.34839966893 0.16194525361 0.23116645217 0.3495952189 0.46450603008 0.54933077097
          0.44929158688 0.54677009583 0.41257217526 0.47378343344 0.25439471006 0.23174984753
          0.35117283463 0.15812925994 0.35192868114 0.29045268893 0.34925836325 0.15578193963
          0.22791048884 0.3498891294 0.46947214007 0.50957983732 0.40710842609 0.50864911079
          0.3684861064 0.4310516715 0.20519892871 0.18171100318 0.30575245619 0.10547033697
          0.30574735999 0.24299383163 0.30497550964 0.10412953049 0.17977699637 0.30463683605
          0.43003180623 0.44368055463 0.34102296829 0.44350901246 0.30210581422 0.36539506912
          0.1374668628 0.11353757977 0.23885941505 0.035947177559 0.23909376562 0.17615541816
          0.23857496679 0.035919986665 0.11307496578 0.23908996582 0.36477348208 0.43694764376
          0.40173104405 0.43864601851 0.38778907061 0.40851309896 0.33481425047 0.32433471084
          0.36715820432 0.30161249638 0.36752846837 0.34753975272 0.36616370082 0.30369022489
          0.32767060399 0.36662730575 0.41043153405 0.37579402328 0.37144371867 0.35827699304
          0.39247080684 0.3824737668 0.35892903805 0.37271055579 0.27718099952 0.28380331397
          0.277903229 0.20100979507 0.21452571452 0.20183518529 0.28606003523 0.21934451163
          0.28165528178 0.21055938303 0.29554575682 0.29523387551 0.28932896256 0.24054576457
          0.24185441434 0.22705191374 0.30049785972 0.25319460034 0.28984957933 0.2275390923
          0.29413503408 0.23649637401 0.28881457448 0.22629876435 0.30259084702 0.25508704782
          0.29856282473 0.24582079053 0.29025930166 0.22802248597 0.28243359923 0.21146909893
          0.11187552661 0.13424216211 0.11237686872 0.14238554239 0.12823604047 0.17775310576
          0.18185478449 0.15557865798 0.19977295399 0.1558778435 0.1698282212 0.15477690101
          0.20068274438 0.18339334428 0.15574453771 0.12875369191 0.0010606545256 0.035436116159
          0.0015609426191 0.048057943583 0.026256483048 0.10398889333 0.11175330728 0.069649249315
          0.13851119578 0.069410815835 0.090599142015 0.069569788873 0.13866016269 0.11194532365
          0.06878234446 0.02748308517 -0.1211695075 -0.074782624841 -0.12094923854 -0.057251341641
          -0.085792809725 0.017447475344 0.028928671032 -0.028098996729 0.062795646489 -0.02862079069
          -0.00030636685551 -0.027589719743 0.062337435782 0.027883345261 -0.028574289754 -0.08528380096
          -0.22816540301 -0.17180229723 -0.22886113822 -0.14994080365 -0.18398147821 -0.059023912996
          -0.044158294797 -0.11432273686 -0.0035209935158 -0.11520861834 -0.080838270485 -0.11317545176
          -0.0048450776376 -0.046508457512 -0.11456660181 -0.18440055847 -0.30043062568 -0.23731075227
          -0.30249387026 -0.21197596192 -0.24994589388 -0.10852184892 -0.090840630233 -0.17213903368
          -0.044710405171 -0.17260098457 -0.13393586874 -0.17074847221 -0.047364749014 -0.095658488572
          -0.17218717933 -0.25269144773 -0.33625909686 -0.26890420914 -0.33882269263 -0.24189257622
          -0.28239944577 -0.13137173653 -0.11231381446 -0.19934032857 -0.062268212438 -0.19987741113
          -0.15862098336 -0.19820098579 -0.065660186112 -0.11793582141 -0.19959847629 -0.28586196899
          -0.35060819983 -0.27872925997 -0.35222688317 -0.25053963065 -0.29421320558 -0.13348004222
          -0.11429161578 -0.20554879308 -0.060446977615 -0.2059442997 -0.16201017797 -0.20485657454
          -0.062561348081 -0.11848458648 -0.20609670877 -0.29630798101 -0.35255435109 -0.2744551599
          -0.35345765948 -0.24400757253 -0.29211238027 -0.11686196178 -0.097701661289 -0.19566345215
          -0.038180638105 -0.19565282762 -0.147253111 -0.19560006261 -0.039356194437 -0.099319554865
          -0.19548757374 -0.29353889823 -0.34927487373 -0.26648834348 -0.35022714734 -0.23444628716
          -0.28553649783 -0.098982177675 -0.078649654984 -0.18288958073 -0.015157771297 -0.18282595277
          -0.13145300746 -0.18279573321 -0.016163161024 -0.080355234444 -0.18306849897 -0.28675851226
          -0.33885550499 -0.25646489859 -0.3400336802 -0.22445163131 -0.27493909001 -0.089937575161
          -0.069334030151 -0.17334794998 -0.0062031233683 -0.17327442765 -0.12217544019 -0.17313493788
          -0.0075450916775 -0.071602664888 -0.17341841757 -0.27674993873 -0.31878313422 -0.23867735267
          -0.31966045499 -0.20811443031 -0.25691661239 -0.078182756901 -0.057609584183 -0.15765523911
          0.00231789588 -0.15845741332 -0.10947526991 -0.15705165267 0.00073173682904 -0.060960680246
          -0.15886041522 -0.2577714026 -0.2909206152 -0.21155886352 -0.29112270474 -0.18096877635
          -0.22952392697 -0.054007068276 -0.03455555439 -0.1321259588 0.024212572724 -0.13257610798
          -0.083919264376 -0.13110947609 0.0236659199 -0.035440925509 -0.13178123534 -0.22954002023
          -0.24231506884 -0.16148017347 -0.24178646505 -0.13091795146 -0.18004511297 -0.001968242228
          0.017743557692 -0.08075568825 0.076714754105 -0.081464059651 -0.032013207674 -0.079334065318
          0.077331081033 0.018182795495 -0.079906433821 -0.17881843448 -0.15508727729 -0.07374112308
          -0.15432408452 -0.042952761054 -0.092451684177 0.086123600602 0.10566726327 0.0071998126805
          0.16511997581 0.0065703443252 0.055915270001 0.0085634374991 0.16557875276 0.10620780289
          0.0079855564982 -0.090711854398 -0.025432696566 0.054855294526 -0.025134572759 0.085530735552
          0.03656033054 0.2141546458 0.23371501267 0.13507698476 0.29328042269 0.1348118782
          0.1841828227 0.13612040877 0.29339554906 0.23382456601 0.13594016433 0.037024628371
          0.1276742667 0.20945653319 0.12765926123 0.24117863178 0.19104477763 0.37287271023
          0.3926436305 0.29161536694 0.45439377427 0.29134422541 0.34206873178 0.29176923633
          0.45421814919 0.39256963134 0.2921358645 0.19065223634 0.29503938556 0.37862244248
          0.29487991333 0.41071805358 0.35900714993 0.54569512606 0.56578588486 0.46243542433
          0.62905913591 0.46203422546 0.51370072365 0.462752074 0.6286996007 0.56509202719
          0.46217694879 0.35892036557 0.47108194232 0.55438834429 0.4708263576 0.5863929987
          0.53501069546 0.722266078 0.74247163534 0.63853150606 0.80618607998 0.63820999861
          0.69000738859 0.63857680559 0.80580365658 0.74162346125 0.63823837042 0.5346660018
          0.37382155657 0.36406743526 0.37437543273 0.36049577594 0.3658182919 0.34694084525
          0.34364229441 0.35471880436 0.33859097958 0.35525876284 0.35029807687 0.35438615084
          0.34000968933 0.34581038356 0.35496556759 0.36653590202 0.37422657013 0.37127113342
          0.36339563131 0.38531878591 0.37917101383 0.36381217837 0.37274110317 0.3908559382
          0.39091533422 0.39251932502 0.39592927694 0.39296555519 0.39239737391 0.39388096333
          0.39765945077 0.39451056719 0.39656922221 0.39289778471 0.39448937774 0.39296227694
          0.3116799891 0.31319412589 0.31661248207 0.31982642412 0.31541624665 0.31195345521
          0.31624603271 0.32028365135 0.3165615797 0.31841230392 0.31399193406 0.31597414613
          0.31316161156 0.19804592431 0.19847416878 0.19892266393 0.19919367135 0.19897568226
          0.1984346658 0.19950847328 0.1998231113 0.20005133748 0.20069865882 0.20116972923
          0.20132221282 0.19970163703 0.091633558273 0.09071739763 0.088938362896 0.08660967648
          0.089968174696 0.091965779662 0.090095773339 0.086688421667 0.090919315815 0.089531496167
          0.094308622181 0.092749349773 0.093095824122 0.02553001605 0.02525706403 0.02299442701
          0.019402807578 0.023351253942 0.024876732379 0.023487865925 0.019457563758 0.02424291335
          0.023746443912 0.028510455042 0.02733065933 0.026188030839 2.0763456926e-11 -2.347096302e-11
          -9.5378557483e-12 1.1324405823e-11 -1.2495439796e-12 -1.7149798942e-11 -3.3466548218e-13 2.3029112712e-15
          4.555561386e-14 0 0 0 1.3453078712e-14
        </DataArray>
        <DataArray type="Float32" Name="uz" format="ascii" RangeMin="-0.23675692081" RangeMax="0.26120388508">
          0.032206404954 0.040046550333 0.032108105719 0.034336965531 0.040278989822 0.033495046198
          0.046941880137 0.039092343301 0.055447794497 0.046265602112 0.04257870093 0.065533682704
          0.048937916756 0.053443849087 0.02320782654 0.026942640543 0.021510494873 0.031164139509
          0.049776293337 0.055166684091 0.057068798691 0.059975069016 0.070705316961 0.0154324295
          0.025179367512 0.020684910938 0.038174647838 -0.089197508991 -0.0012559003662 -0.015231117606
          -0.066976547241 0.0040010884404 -0.0016613609623 -0.055497288704 -0.046250864863 -0.12499632686
          -0.10229796171 0.062477275729 0.14912833273 0.071474947035 0.046580098569 0.11964454502
          0.061803929508 0.11426808685 0.083017535508 0.012176453136 0.0095517942682 -0.016455970705
          -0.019039137289 0.13210229576 0.11472296715 0.03946602717 0.019796270877 -0.045671604574
          -0.047783199698 -0.10818269849 -0.094784490764 0.069399297237 0.068104334176 -0.1000360176
          -0.0054949969053 -0.025101114064 -0.058349337429 -0.13200245798 0.070741832256 0.15988940001
          0.074087642133 0.12868916988 0.013883584179 -0.011480960064 0.13544908166 0.052839457989
          -0.037673726678 -0.10798238963 0.064677476883 -0.095380879939 -0.008481791243 -0.03257112205
          -0.049938123673 -0.11605469137 0.070473320782 0.14669334888 0.065725885332 0.12616565824
          0.015256523155 -0.0012060382869 0.11732786894 0.063145466149 -0.017919743434 -0.086385294795
          0.048696555197 -0.075005918741 -0.0074238209054 -0.032977093011 -0.031499221921 -0.08129516989
          0.064796112478 0.11788671464 0.052386600524 0.11127541214 0.01834451966 0.013086310588
          0.086557775736 0.069356575608 0.0078523345292 -0.049649789929 0.028850901872 -0.045427251607
          -0.00062676268863 -0.02461550571 -0.0084780873731 -0.04006011039 0.057426381856 0.086007080972
          0.040035303682 0.091434255242 0.023210493848 0.027342606336 0.056468401104 0.070639163256
          0.031885582954 -0.010569803417 0.014192176983 -0.016916558146 0.0052612833679 -0.014950773679
          0.011457067914 -0.0024394420907 0.046597171575 0.0534998402 0.027091743425 0.067703470588
          0.025501472875 0.036962240934 0.028284100816 0.065829046071 0.048519629985 0.022506101057
          0.0023124564905 0.0053976606578 0.0083423405886 -0.0083138896152 0.026016816497 0.026894172654
          0.035207021981 0.023810187355 0.014293078333 0.044564355165 0.025251597166 0.042378798127
          0.0032634902745 0.058087494224 0.059226982296 0.047427516431 -0.009032767266 0.020878069103
          0.0080017689615 -0.0064793424681 0.035565629601 0.048794854432 0.023338157684 -0.003290490713
          0.00055077404249 0.024418635294 0.022463569418 0.044737555087 -0.021383212879 0.051094733179
          0.066957637668 0.06628959626 -0.022594256327 0.036583993584 0.0082249371335 -0.0030668973923
          0.044077090919 0.069258876145 0.0097323385999 -0.031671766192 -0.013051407412 0.0011529269395
          0.018789907917 0.0450287126 -0.045330580324 0.040758997202 0.072308592498 0.083068154752
          -0.034321639687 0.059318650514 0.012599578127 0.00914807152 0.053975217044 0.092654958367
          -0.005742775742 -0.061433970928 -0.024615909904 -0.027512362227 0.01569629088 0.042803052813
          -0.065616168082 0.022900382057 0.070430792868 0.096748873591 -0.038389291614 0.083038248122
          0.020420562476 0.028268462047 0.061831243336 0.11118422449 -0.021808547899 -0.085220679641
          -0.031382150948 -0.056986175478 0.013018562458 0.03565884009 -0.075959540904 -0.0021203202195
          0.05838329345 0.10158722103 -0.032456781715 0.10332071036 0.030444331467 0.049663536251