<VTKFile type="UnstructuredGrid" version="1.0" byte_order="LittleEndian" header_type="UInt64">
  <UnstructuredGrid>
    <Piece NumberOfPoints="791" NumberOfCells="973">
      <PointData>
        <DataArray type="Float32" Name="ux" format="ascii" RangeMin="-0.84977900982" RangeMax="0.9567437768">
          -0.1077510789 -0.17243076861 -0.079761318862 -0.089612267911 -0.094371534884 -0.072002723813
          -0.15918265283 -0.20854508877 -0.28332534432 -0.28226804733 -0.22011837363 -0.26868852973
          -0.18970902264 -0.26877847314 -0.0084896497428 -0.026433184743 0.0022060323972 -0.019280740991
          -0.2032378763 -0.27997809649 -0.21025674045 -0.27791973948 -0.28083413839 0.013752459548
          0.0048925383016 0.01189311035 -0.15972389281 -0.50502306223 -0.5624922514 -0.58001881838
          -0.36421558261 -0.43258100748 -0.46501460671 -0.49834752083 -0.34846758842 -0.4467421174
          -0.28397631645 -0.55971634388 -0.63848948479 -0.60394954681 -0.42387080193 -0.52821797132
          -0.48467698693 -0.57180535793 -0.4395454824 -0.5457470417 -0.4055134058 -0.49480459094
          -0.3419020772 -0.66603183746 -0.56861066818 -0.50403213501 -0.35229247808 -0.44927501678
          -0.2804645896 -0.4278434515 -0.25664576888 -0.64341133833 -0.54030263424 -0.51102435589
          -0.53125286102 -0.53010052443 -0.50949651003 -0.48981416225 -0.53590559959 -0.56328451633
          -0.54758059978 -0.54253339767 -0.52763384581 -0.51152521372 -0.56541419029 -0.51258826256
          -0.48758277297 -0.48033371568 -0.54874116182 -0.42963474989 -0.39677068591 -0.37853854895
          -0.43134260178 -0.46489521861 -0.39774978161 -0.37196654081 -0.37634977698 -0.39097228646
          -0.4072290957 -0.4298632741 -0.35023316741 -0.41978174448 -0.44573265314 -0.46474337578
          -0.35072821379 -0.30559197068 -0.23239244521 -0.19990114868 -0.32309144735 -0.38829544187
          -0.24549485743 -0.14948494732 -0.18722802401 -0.2267960161 -0.26363936067 -0.32234734297
          -0.10860808194 -0.30804157257 -0.37381497025 -0.41058251262 -0.12384886295 -0.061326991767
          0.015470160171 0.047703437507 -0.082898430526 -0.15747456253 0.002035031328 0.10691781342
          0.06337865442 0.027320664376 -0.01806082949 -0.084781117737 0.14471392334 -0.065631985664
          -0.14858554304 -0.18815647066 0.12012783438 0.18085150421 0.28161412477 0.31238013506
          0.16480790079 0.077551133931 0.28541472554 0.42548248172 0.35784378648 0.31945282221
          0.25190541148 0.1682266742 0.46619057655 0.19080355763 0.085706487298 0.04278722778
          0.42554432154 0.42275065184 0.55974179506 0.59539079666 0.40538322926 0.29293227196
          0.5726096034 0.75855928659 0.666238904 0.61737072468 0.52231609821 0.41064223647
          0.80612146854 0.43687081337 0.29677176476 0.24559935927 0.74265426397 0.59131282568
          0.71123456955 0.73701155186 0.57746094465 0.47992002964 0.72282397747 0.89399212599
          0.80703836679 0.75927484035 0.67570990324 0.57725518942 0.93849998713 0.59604680538
          0.47075387836 0.43282961845 0.87495279312 0.62711834908 0.70469307899 0.72392570972
          0.61507749557 0.55426561832 0.70877408981 0.83862048388 0.77351868153 0.73528581858
          0.67899209261 0.6081585288 0.86868953705 0.61141335964 0.52897459269 0.51510202885
          0.81682306528 0.40996435285 0.47092947364 0.48553484678 0.39943048358 0.35119432211
          0.47449707985 0.57578635216 0.52487838268 0.49522188306 0.45551970601 0.39373803139
          0.59729278088 0.39721339941 0.3277490437 0.31461066008 0.55893498659 0.090942539275
          0.12607698143 0.1351993829 0.082474850118 0.054251920432 0.12391804159 0.18251112103
          0.15428593755 0.13665874302 0.11619245261 0.080497704446 0.20005767047 0.08461817354
          0.048436626792 0.03522471711 0.17917992175 -0.25611296296 -0.25621974468 -0.25643715262
          -0.25315931439 -0.25318464637 -0.26276317239 -0.28131192923 -0.26585578918 -0.27207136154
          -0.25951072574 -0.25596526265 -0.28284344077 -0.25714331865 -0.24615581334 -0.24584916234
          -0.26651954651 -0.59249377251 -0.61667358875 -0.62148481607 -0.5867099762 -0.56759029627
          -0.60738623142 -0.6583891511 -0.63736432791 -0.60885483027 -0.60625720024 -0.57859236002
          -0.67583012581 -0.57075995207 -0.55192637444 -0.55156159401 -0.65734261274 -0.78206175566
          -0.8057025671 -0.8069626689 -0.78539526463 -0.77056789398 -0.79791945219 -0.82996988297
          -0.8212095499 -0.79623728991 -0.80025058985 -0.77894097567 -0.84977900982 -0.77003997564
          -0.76220732927 -0.76546353102 -0.83460497856 -0.70922768116 -0.70639485121 -0.69256722927
          -0.72340923548 -0.73242789507 -0.70653188229 -0.69185298681 -0.70206153393 -0.69547599554
          -0.71085590124 -0.72887808084 -0.70111268759 -0.71790802479 -0.74088424444 -0.74719649553
          -0.69512736797 -0.34162548184 -0.31392064691 -0.30421411991 -0.35154294968 -0.37894776464
          -0.31199890375 -0.27344113588 -0.29460734129 -0.29825666547 -0.32376036048 -0.34947213531
          -0.26450765133 -0.34089142084 -0.3773432076 -0.39726397395 -0.27589583397 0.1160723567
          0.15056724846 0.16099701822 0.11243402958 0.080020479858 0.14830164611 0.19247363508
          0.17147409916 0.15741182864 0.1398126334 0.10984106362 0.20316842198 0.11695101857
          0.085498593748 0.069558650255 0.19238826632 0.53826791048 0.55801832676 0.56025886536
          0.53428506851 0.51684957743 0.55220288038 0.57747149467 0.56826210022 0.55265206099
          0.55180978775 0.53134322166 0.58652931452 0.53068011999 0.51386159658 0.5085144043
          0.58044326305 0.90926384926 0.92578965425 0.92805802822 0.90906494856 0.89100289345
          0.93036007881 0.94904524088 0.93812179565 0.9335347414 0.92300230265 0.91097813845
          0.9567437768 0.91617435217 0.89137035608 0.88304913044 0.94737356901 -0.10948170722
          -0.18943844736 -0.18188233674 -0.13134813309 -0.061394616961 -0.23539015651 -0.32371678948
          -0.25452578068 -0.27916738391 -0.19398759305 -0.15423801541 -0.31341156363 -0.20232972503
          -0.12123484164 -0.063472740352 -0.2585093081 -0.16398148239 -0.26134863496 -0.20206901431
          -0.13757011294 -0.082570359111 -0.11135769635 -0.028424991295 0.18276186287 0.19174608588
          0.19247594476 0.53880602121 0.54755973816 0.54703146219 0.18167473376 0.53335666656
          0.16995963454 0.53442329168 0.19547909498 0.21003772318 0.20145221055 0.54686754942
          0.56741923094 0.55511087179 0.2031686157 0.55372148752 0.19084043801 0.54426956177
          0.18326868117 0.52993518114 0.20546944439 0.56940549612 0.18673986197 0.5267868638
          0.16984434426 0.51135593653 0.16442462802 0.52068811655 0.20012491941 0.55896925926
          0.78907048702 0.77747803926 0.7645098567 0.80171328783 0.82140523195 0.78517264128
          0.76859927177 0.77389127016 0.77921664715 0.78968894482 0.80257308483 0.75657862425
          0.79247403145 0.81451106071 0.82987964153 0.75107491016 0.80374568701 0.79273122549
          0.77853572369 0.82548820972 0.84178543091 0.80131071806 0.76238304377 0.77907508612
          0.78516727686 0.8084244132 0.83448880911 0.7560736537 0.82693535089 0.86161780357
          0.86602568626 0.75958514214 0.64079707861 0.63311475515 0.62161976099 0.65593796968
          0.66547399759 0.6396291256 0.61362844706 0.62736344337 0.63403528929 0.6459119916
          0.66154801846 0.6067533493 0.66151916981 0.68053478003 0.68763130903 0.61295151711
          0.35489910841 0.36197975278 0.36183658242 0.35810631514 0.35655277967 0.36207973957
          0.3600936234 0.3642308414 0.35909900069 0.36260959506 0.3592800796 0.35966593027
          0.35849499702 0.36091977358 0.36525776982 0.36031228304 -0.014568625949 -0.0041033094749
          -0.00049430760555 -0.013667865656 -0.020729083568 0.00026394517045 0.0075418902561 0.0046148668043
          0.0019183212426 -0.0053650224581 -0.010407562368 0.013897280209 -0.0057092695497 -0.014871566556
          -0.022182974964 0.011367315426 -0.36842736602 -0.31392946839 -0.28388234973 -0.38907033205
          -0.44376894832 -0.31115725636 -0.22517074645 -0.26693731546 -0.28557986021 -0.33495154977
          -0.3840329349 -0.20027755201 -0.36222010851 -0.43734738231 -0.47140660882 -0.21920309961
          -0.51897644997 -0.41797614098 -0.37453964353 -0.5459471941 -0.64288860559 -0.42295312881
          -0.27899903059 -0.34424725175 -0.38488307595 -0.45808023214 -0.54755419493 -0.23437586427
          -0.52031958103 -0.63742536306 -0.69154727459 -0.26883396506 -0.48531019688 -0.33798128366
          -0.28624168038 -0.51697164774 -0.64680343866 -0.34398946166 -0.14607460797 -0.23561304808
          -0.29530900717 -0.38694033027 -0.51517498493 -0.089209780097 -0.48216640949 -0.64000165462
          -0.70498341322 -0.1377043426 -0.42794778943 -0.23919174075 -0.17902494967 -0.46386218071
          -0.62660247087 -0.24055184424 0.021097950637 -0.10284078866 -0.1780654788 -0.30439633131
          -0.46209928393 0.097912818193 -0.41943711042 -0.6148994565 -0.69856160879 0.024161014706
          -0.33852273226 -0.11776861548 -0.040401190519 -0.3854995966 -0.58061146736 -0.11891053617
          0.19528026879 0.046093005687 -0.04163691774 -0.18924374878 -0.38628458977 0.28387278318
          -0.34094670415 -0.58240628242 -0.67555987835 0.1939895153 -0.15527315438 0.036030292511
          0.099917888641 -0.19851003587 -0.37005054951 0.034860379994 0.30444708467 0.17559753358
          0.097224332392 -0.027937728912 -0.20106035471 0.37896463275 -0.16303515434 -0.37625026703
          -0.46059337258 0.30352157354 0.088364414871 0.19312924147 0.22373682261 0.066014543176
          -0.027580335736 0.19324028492 0.35327395797 0.27506691217 0.2317057699 0.16080492735
          0.060744404793 0.39222332835 0.082969672978 -0.038879953325 -0.078889682889 0.34047567844
          0.26877588034 0.32374075055 0.33471295238 0.26390218735 0.21565818787 0.32386276126
          0.40453162789 0.36475232244 0.34238839149 0.30743265152 0.2602801919 0.4230735302
          0.26489046216 0.20677579939 0.19022463262 0.39158597589 0.31657668948 0.33922785521
          0.33504620194 0.32139566541 0.30551487207 0.3486944437 0.39095059037 0.36524504423
          0.35778144002 0.33809712529 0.32158276439 0.39649230242 0.32138431072 0.29645743966
          0.29436525702 0.3702314496 0.21025523543 0.230824247 0.22746086121 0.21909281611
          0.20584836602 0.24963343143 0.26735714078 0.25214725733 0.25697743893 0.23823751509
          0.2301324755 0.26676318049 0.2393630147 0.22289170325 0.21337085962 0.25116327405
          0.0069212494418 0.011144768447 0.0040024993941 0.014933121391 0.017137695104 0.023862957954
          0.020916769281 0.015949500725 0.03088339977 0.021583965048 0.027216091752 0.011455070227
          0.037670839578 0.037157412618 0.027308531106 0.0099202906713 -0.19604550302 -0.2169265151
          -0.2269025296 -0.18521144986 -0.16657187045 -0.20887248218 -0.25067606568 -0.23217791319
          -0.21396744251 -0.20370922983 -0.17434729636 -0.25959572196 -0.17198839784 -0.14558234811
          -0.14514531195 -0.25091776252 -0.38155755401 -0.4023527503 -0.40631857514 -0.37610787153
          -0.36046791077 -0.40510356426 -0.4400100112 -0.42179396749 -0.41077882051 -0.39424291253
          -0.37737584114 -0.44829624891 -0.37852182984 -0.35366728902 -0.34392380714 -0.43693637848
          -0.13476039469 -0.13238582015 -0.17216029763 -0.087363325059 -0.08329539746 -0.056646645069
          -0.085663154721 -0.11605823785 -0.02663753368 -0.086509227753 -0.041412841529 -0.14344482124
          0.0036884115543 -0.0022146697156 -0.034644730389 -0.17810112238 -0.13774186373 -0.22487437725
          -0.14484409988 -0.13006895781 -0.065824575722 -0.065383017063 -0.0093932468444 -0.57572227716
          -0.64264053106 -0.57194340229 -0.38997617364 -0.41492298245 -0.38363257051 -0.26825422049
          -0.15992560983 -0.12432914972 0.023498961702 0.039271879941 0.098632872105 -0.14184179902
          -0.6396908164 -0.71476471424 -0.62718206644 -0.40672618151 -0.44703009725 -0.41465872526
          -0.27902063727 -0.14685733616 -0.11328332871 0.06005172804 0.077112913132 0.14841738343
          -0.13631305099 -0.63365453482 -0.72388017178 -0.62698721886 -0.38702532649 -0.42371445894
          -0.3866482079 -0.23674975336 -0.094786450267 -0.058019004762 0.13070178032 0.13916483521
          0.22089251876 -0.089413285255 -0.47496557236 -0.55689686537 -0.48774820566 -0.28182765841
          -0.31266748905 -0.27996310592 -0.1587587595 -0.03262418136 -0.01206749212 0.15244156122
          0.13311804831 0.21508921683 -0.050740294158 -0.24505895376 -0.29334554076 -0.2546646893
          -0.13676163554 -0.15258941054 -0.1396472007 -0.057857379317 0.022454706952 0.033432368189
          0.13595677912 0.11420222372 0.16676707566 -0.00075477431528 3.4910033198e-10 -1.906211633e-09
          -5.305138967e-11 -4.3277235962e-11 -1.4651505009e-10 1.2905265398e-11 3.4316223474e-11 -1.9295288024e-12
          -2.1870317514e-13 0 0 0 -1.2060238062e-13
        </DataArray>
        <DataArray type="Float32" Name="uy" format="ascii" RangeMin="-0.87344312668" RangeMax="1.1929337978">
          0.29799214005 0.26852652431 0.25185698271 0.46477761865 0.61884647608 0.50278717279
          0.53908091784 0.29942971468 0.28287032247 0.35491368175 0.4715885818 0.557315588
          0.62223774195 0.54880946875 0.27369007468 0.3467412293 0.54905176163 0.53883224726
          0.23078466952 0.43040242791 0.44990861416 0.231041044 0.44371148944 0.44146111608
          0.41377368569 0.22295066714 0.47305068374 -0.051321934909 -0.10574867576 -0.05016990006
          0.38015520573 0.30239492655 0.38101390004 -0.12969075143 0.26879146695 -0.094082862139
          0.3189022243 -0.22407571971 -0.24309149384 -0.16516789794 0.14220735431 0.11657897383
          0.22036483884 -0.28502768278 0.063419565558 -0.16529892385 0.21922564507 -0.1988517791
          0.17155084014 -0.16588559747 0.2153378427 -0.27423107624 0.072894006968 -0.23079016805
          0.13051636517 -0.15924277902 0.22200794518 -0.088700339198 0.31938970089 -0.52339404821
          -0.53976815939 -0.51772940159 -0.54861092567 -0.53908061981 -0.58408033848 -0.58044463396
          -0.55489945412 -0.60750180483 -0.56271731853 -0.57773375511 -0.54343175888 -0.6088462472
          -0.58860039711 -0.5628786087 -0.51944744587 -0.8677418232 -0.82813644409 -0.85866934061
          -0.8252427578 -0.83802932501 -0.78070038557 -0.76337170601 -0.79182767868 -0.76016104221
          -0.80310916901 -0.79233390093 -0.77702820301 -0.76292747259 -0.7728806138 -0.8005066514
          -0.8180205822 -0.87344312668 -0.79477584362 -0.87101560831 -0.76096183062 -0.8072258234
          -0.65059101582 -0.6305449605 -0.71595460176 -0.58814847469 -0.71769660711 -0.6758056283
          -0.70979648829 -0.5906906724 -0.6305552125 -0.70970922709 -0.80164819956 -0.58127331734
          -0.49552339315 -0.57904982567 -0.45743817091 -0.51203739643 -0.33269426227 -0.31907707453
          -0.4145283103 -0.25772872567 -0.41193795204 -0.35463038087 -0.4199873805 -0.25379016995
          -0.30514338613 -0.40199947357 -0.51858574152 -0.29420021176 -0.19364795089 -0.29856795073
          -0.15238131583 -0.21308408678 0.011167855933 0.031791504472 -0.091436326504 0.11054843664
          -0.090564399958 -0.025258772075 -0.093097537756 0.11131388694 0.037792041898 -0.088423639536
          -0.22206473351 -0.055655241013 0.068704649806 -0.062898673117 0.11946174502 0.045504748821
          0.32709935308 0.35765847564 0.19708092511 0.46469095349 0.19508010149 0.27708348632
          0.18900817633 0.46203482151 0.35812020302 0.19825856388 0.030535863712 0.26040408015
          0.36871501803 0.25108012557 0.41530197859 0.34601923823 0.61295795441 0.64501935244
          0.48686212301 0.7428355813 0.48858007789 0.56027412415 0.48304846883 0.73312819004
          0.63026189804 0.48121517897 0.3292439878 0.4948990643 0.56221067905 0.48318722844
          0.59841811657 0.55442178249 0.7314093709 0.753459692 0.63852345943 0.82712650299
          0.64362686872 0.69723248482 0.63456636667 0.8189368248 0.73750579357 0.64197695255
          0.52853643894 0.46243026853 0.52511155605 0.46315872669 0.54685199261 0.50215280056
          0.66782385111 0.68669736385 0.59511941671 0.74713271856 0.58983385563 0.63443517685
          0.59082055092 0.74233096838 0.67441314459 0.57987862825 0.50616407394 0.22755612433
          0.26787894964 0.2282705158 0.28177842498 0.25593343377 0.35217341781 0.36379215121
          0.30993568897 0.39438521862 0.30871686339 0.33363038301 0.3098154664 0.39008635283
          0.35682907701 0.30695736408 0.25862023234 -0.010885104537 -0.012677881867 -0.0075503168628
          -0.021298147738 -0.011758426204 -0.046005461365 -0.050049386919 -0.028428349644 -0.062403090298
          -0.027398087084 -0.035963926464 -0.021090531722 -0.055749099702 -0.039902180433 -0.023098800331
          -0.0060071260668 -0.12214547396 -0.14453907311 -0.11308377236 -0.16140310466 -0.143974334
          -0.21689531207 -0.22579030693 -0.17552933097 -0.25539124012 -0.18064978719 -0.20075306296
          -0.17060002685 -0.24496622384 -0.21719823778 -0.17746472359 -0.12521098554 -0.1440333277
          -0.15357336402 -0.13090722263 -0.16578520834 -0.15995772183 -0.19778560102 -0.21048957109
          -0.17668060958 -0.22318682075 -0.17458245158 -0.18364433944 -0.17280338705 -0.20882183313
          -0.18619038165 -0.1712898165 -0.14039805532 -0.17775738239 -0.16463455558 -0.1616140604
          -0.16645774245 -0.17784106731 -0.15722672641 -0.16194798052 -0.16094580293 -0.14974953234
          -0.16164754331 -0.15718246996 -0.15803098679 -0.13631445169 -0.14165453613 -0.16072189808
          -0.14974571764 -0.22505414486 -0.18690425158 -0.2176771462 -0.17748740315 -0.20286731422
          -0.11907224357 -0.1183379516 -0.15522643924 -0.091603912413 -0.15790781379 -0.13101264834
          -0.14973641932 -0.081490337849 -0.10377984494 -0.1520037204 -0.19115924835 -0.14610175788
          -0.11353120953 -0.14953240752 -0.095295935869 -0.11554370821 -0.046424753964 -0.043122939765
          -0.080793961883 -0.019012149423 -0.076761342585 -0.056569371372 -0.084686823189 -0.015649968758
          -0.034619029611 -0.072520874441 -0.1264924556 -0.031012780964 -0.014647146687 -0.032656885684
          -0.0088207405061 -0.024396354333 0.022566644475 0.024232592434 0.0017813665327 0.044272236526
          0.0025543465745 0.016149092466 -0.0028710823972 0.043637510389 0.028979443014 0.0021038516425
          -0.018864748999 0.0041169403121 0.027298772708 0.0059356535785 0.030015183613 0.016906017438
          0.076285116374 0.084298886359 0.053776014596 0.097709797323 0.048422031105 0.066316887736
          0.055412393063 0.098847188056 0.079195998609 0.044503197074 0.02262509428 0.69412481785
          0.58669644594 0.69019520283 0.54664885998 0.61158955097 0.38229656219 0.36305546761
          0.48901101947 0.28271570802 0.48102840781 0.41693767905 0.48705428839 0.27282908559
          0.34570226073 0.47521305084 0.60938584805 0.35695245862 0.33888480067 0.27189278603
          0.44857487082 0.38995012641 0.26225629449 0.33113545179 -0.3749179244 -0.38983562589
          -0.38374233246 -0.55665916204 -0.56015908718 -0.55285441875 -0.38852989674 -0.56020796299
          -0.37732082605 -0.55236381292 -0.40922492743 -0.40313845873 -0.39835965633 -0.57614386082
          -0.5755456686 -0.56649369001 -0.4145527184 -0.58991569281 -0.39928594232 -0.56398195028
          -0.4054223597 -0.56488889456 -0.39342749119 -0.5588658452 -0.41793769598 -0.58426815271
          -0.40656760335 -0.55926173925 -0.39018249512 -0.54624521732 -0.38723745942 -0.5506824255
          -0.5369554162 -0.50957512856 -0.52520763874 -0.50652742386 -0.52035355568 -0.47174713016
          -0.46574568748 -0.48632013798 -0.45910391212 -0.49194228649 -0.4775287509 -0.47809922695
          -0.45396727324 -0.45817276835 -0.48684680462 -0.49999952316 -0.28361368179 -0.25160494447
          -0.27219372988 -0.24839699268 -0.27089414001 -0.19842280447 -0.18769884109 -0.22339497507
          -0.16542465985 -0.2289519608 -0.21245515347 -0.21573673189 -0.16564252973 -0.19174586236
          -0.23329730332 -0.24894544482 -0.039942894131 -0.015979401767 -0.028933575377 -0.01271572616
          -0.032715480775 0.024409838021 0.025594916195 0.0051472829655 0.041866101325 0.0033834103961
          0.013315890916 0.00018725697009 0.043490625918 0.025455780327 -0.0067473654635 -0.016568604857
          0.12967675924 0.13583885133 0.13404294848 0.1317602545 0.1200780496 0.15140150487
          0.1528544873 0.14934557676 0.15106913447 0.14183972776 0.14474734664 0.14755266905
          0.1529930681 0.14858716726 0.13249786198 0.14224435389 0.20136043429 0.19091810286
          0.20290538669 0.18932111561 0.19392831624 0.18005114794 0.18154388666 0.18309271336
          0.17577113211 0.18345984817 0.17894099653 0.18235722184 0.17270772159 0.1745904237
          0.18452045321 0.19400082529 0.4151995182 0.34473434091 0.4074871242 0.3225415051
          0.36614087224 0.21303617954 0.20098766685 0.27334624529 0.15451008081 0.27833497524
          0.2380156517 0.27785176039 0.14809793234 0.19404785335 0.28078770638 0.3563683629
          0.61933410168 0.49981895089 0.61086148024 0.45805415511 0.53148829937 0.27758401632
          0.25479012728 0.38555181026 0.17505447567 0.3883138299 0.31267496943 0.38094747066
          0.16622194648 0.23758378625 0.37994688749 0.51862430573 0.64559304714 0.49396646023
          0.63651382923 0.43748489022 0.52993434668 0.21055600047 0.1787250787 0.34942704439
          0.071165770292 0.35044562817 0.25841498375 0.34979426861 0.062935881317 0.1662440449
          0.34290412068 0.52226418257 0.60190069675 0.41261771321 0.60375481844 0.33202770352
          0.4481126368 0.03436300531 -0.011039758101 0.2215898484 -0.15370045602 0.21696057916
          0.097834475338 0.22516193986 -0.15584698319 -0.016555132344 0.21068042517 0.45990556479
          0.51222550869 0.28526669741 0.50956243277 0.19318443537 0.33775782585 -0.17441169918
          -0.22431913018 0.055128689855 -0.40278220177 0.052163828164 -0.093042925 0.056045338511
          -0.41004741192 -0.23828260601 0.043814834207 0.33337473869 0.27623364329 0.070279218256
          0.26914054155 -0.0052485023625 0.12591026723 -0.33802419901 -0.37896338105 -0.13152116537
          -0.53640246391 -0.13362021744 -0.26249137521 -0.13235530257 -0.54609000683 -0.39598339796
          -0.13530746102 0.11438976973 -0.10333207995 -0.20526979864 -0.10055884719 -0.24756339192
          -0.18267054856 -0.43385571241 -0.46071258187 -0.31172811985 -0.55636322498 -0.31542262435
          -0.39024424553 -0.30931785703 -0.55737090111 -0.46540459991 -0.31858003139 -0.1741515696
          -0.34084510803 -0.38745948672 -0.33102986217 -0.41612422466 -0.38477557898 -0.50934404135
          -0.51968413591 -0.44089391828 -0.57381248474 -0.44805794954 -0.49067032337 -0.43291181326
          -0.57296735048 -0.52133190632 -0.4504172802 -0.36037385464 -0.36604869366 -0.37978100777
          -0.35286653042 -0.39561575651 -0.38697999716 -0.44086250663 -0.44562023878 -0.40504610538
          -0.47462686896 -0.41094967723 -0.43244573474 -0.39513289928 -0.47271668911 -0.44281297922
          -0.40894979239 -0.35489979386 -0.14621657133 -0.15362073481 -0.13286142051 -0.16573213041
          -0.16304278374 -0.17281259596 -0.1685538888 -0.16156373918 -0.17532277107 -0.16699460149
          -0.17215459049 -0.15716351569 -0.17946407199 -0.17538645864 -0.17073577642 -0.13779261708
          0.13080440462 0.13874329627 0.13793537021 0.13139571249 0.1253696233 0.15139050782
          0.15892326832 0.14575113356 0.16535535455 0.14433528483 0.14446473122 0.14588291943
          0.15791961551 0.14150808752 0.12777730823 0.14376191795 0.25372546911 0.27144595981
          0.2543835938 0.27809032798 0.26579198241 0.31990417838 0.33087402582 0.29416424036
          0.35290375352 0.2937477529 0.3073849678 0.29197329283 0.35128933191 0.31911286712
          0.2894666791 0.26858454943 0.36571490765 0.38870730996 0.36658757925 0.39544868469
          0.38088175654 0.44109731913 0.44964933395 0.4145616293 0.46745288372 0.41355288029
          0.43058875203 0.41754317284 0.46757349372 0.44709312916 0.41440629959 0.38226386905
          -0.02103726007 -0.05455795303 -0.021385001019 -0.068381175399 -0.046305887401 -0.11976934224
          -0.11799255759 -0.085920445621 -0.14620229602 -0.088788516819 -0.11181467772 -0.080277942121
          -0.15505945683 -0.13543961942 -0.090967327356 -0.043076790869 0.17931717634 0.17388936877
          0.13216857612 0.22532492876 0.19726768136 0.1241414547 0.16380421817 0.87264657021
          0.65658938885 0.44671797752 0.31856164336 0.66004997492 1.0109680891 0.65878796577
          0.31797420979 0.65742301941 0.44635981321 0.86651003361 0.65407919884 1.0044826269
          1.0358014107 0.77641999722 0.5218770504 0.36966890097 0.7794547081 1.1929337978
          0.7806558013 0.36816844344 0.7731897831 0.51561683416 1.0165871382 0.75938481092
          1.1870032549 0.8311432004 0.54591995478 0.27084681392 0.10513234138 0.55298918486
          1.0067099333 0.55245906115 0.11087141186 0.55320316553 0.27739471197 0.82095927
          0.5474793911 0.99895238876 0.41774630547 0.20062117279 -0.026450792328 -0.17293331027
          0.19293159246 0.54456269741 0.18830645084 -0.16878362 0.18812736869 -0.030013371259
          0.40466967225 0.19123721123 0.53775084019 0.11154356599 -0.00705616083 -0.1392069608
          -0.22486285865 -0.015814213082 0.18574500084 -0.015256744809 -0.22313854098 -0.016171546653
          -0.13325598836 0.11360988021 -0.0078401723877 0.18447062373 -1.8962250173e-11 -1.3997321358e-10
          6.8982257406e-11 -2.1323979041e-11 -1.5886961885e-11 7.2059450421e-12 -2.8360087716e-12 -1.0655534614e-12
          -6.4162068128e-14 0 0 0 -1.3069878296e-12
        </DataArray>
        <DataArray type="Float32" Name="uz" format="ascii" RangeMin="-0.5510558486" RangeMax="0.31176608801">
          -0.095110677183 -0.060017649084 -0.13081610203 -0.11499078572 -0.13764344156 -0.15826822817
          -0.076623119414 -0.035741709173 0.018825341016 0.019033461809 -0.031131597236 0.033316239715
          -0.06496655941 -0.0011422506068 -0.1861858964 -0.15055777133 -0.2320009023 -0.18188817799
          -0.030562840402 0.026544770226 -0.02250870131 0.03146116063 0.051351942122 -0.24913284183
          -0.19669725001 -0.21341530979 -0.068780109286 0.037566863 0.12908510864 0.1788380146
          0.085413515568 0.13658154011 0.22482335567 -0.0020095284563 -0.0031443650369 -0.087909340858
          -0.058158989996 0.10086808354 0.23795443773 0.18957467377 0.048435036093 0.16646975279
          0.16199894249 0.11796344817 0.030320981517 0.081296294928 0.057797536254 -0.017604323104
          -0.049118388444 0.29886510968 0.26821613312 -0.016681099311 -0.086874522269 -0.11852659285
          -0.15600816905 -0.14544989169 -0.14851766825 0.27822691202 0.29176700115 -0.027000047266
          0.075558230281 0.085769534111 -0.018760833889 -0.10854284465 0.10566297919 0.22356794775
          0.1467808336 0.15567804873 0.061594586819 -0.00083129294217 0.23304367065 0.040822084993
          -0.068192452192 -0.12383603305 0.18430531025 -0.059070616961 -0.00038079899969 -0.029094588012
          -0.015514005907 -0.056560151279 0.064045056701 0.097935892642 0.044853556901 0.10471569747
          0.024181751534 0.023959862068 0.066742360592 0.075745522976 0.023359192535 -0.027182292193
          0.019741062075 -0.076530843973 -0.069613344967 -0.14180541039 0.0024889800698 0.019911604002
          0.024214226753 -0.027773596346 -0.049986708909 0.053142622113 -0.0060995323583 0.058494985104
          -0.10211268067 0.11650837958 0.13303057849 0.095484085381 -0.14686891437 -0.087316676974
          -0.099780969322 -0.19407735765 0.018814362586 0.049030054361 0.03468079865 -0.057608947158
          -0.088291622698 0.078439384699 -0.0067159184255 0.099657326937 -0.17768371105 0.18053267896
          0.21569861472 0.16293613613 -0.22946231067 -0.08511454612 -0.097341917455 -0.19529996812
          0.030633144081 0.057769771665 0.056423276663 -0.032228883356 -0.081149049103 0.11100961268
          0.0048254975118 0.12396298349 -0.16496267915 0.21232327819 0.23785300553 0.18178677559
          -0.22716994584 -0.029403265566 -0.054688323289 -0.13965286314 0.064417369664 0.098530858755
          0.065437838435 -0.023072335869 -0.052480038255 0.10240969807 0.029400821775 0.13092200458
          -0.13472786546 0.1967702955 0.23248498142 0.19732283056 -0.18146650493 0.057660341263
          0.02658588998 -0.018069619313 0.099943831563 0.13942310214 0.06785685569 -0.00071767630288
          0.011727898382 0.069463670254 0.067203842103 0.12107174844 -0.049890268594 0.13742181659
          0.18403016031 0.18597467244 -0.058491017669 0.14212702215 0.10627498478 0.12873621285
          0.10415439308 0.13127449155 0.049070794135 0.029177587479 0.074600964785 0.012828384526
          0.081127800047 0.06822104007 0.060833632946 0.023507585749 0.058819811791 0.099579289556
          0.098196417093 0.20081615448 0.16800798476 0.26286458969 0.084098182619 0.088804073632
          0.020921189338 0.056504674256 0.12268383801 -0.041994024068 0.079582631588 -0.0040582488291
          0.16433236003 -0.099096678197 -0.092782445252 -0.023252833635 0.24400195479 0.20654767752
          0.18241347373 0.30512332916 0.062093663961 0.051347080618 -0.0084531037137 0.076471298933
          0.13714797795 -0.076413705945 0.06275293231 -0.055767565966 0.22567054629 -0.17826418579
          -0.18682284653 -0.097176618874 0.31176608801 0.21718665957 0.17216998339 0.29571896791