<VTKFile type="UnstructuredGrid" version="1.0" byte_order="LittleEndian" header_type="UInt64">
  <UnstructuredGrid>
    <Piece NumberOfPoints="791" NumberOfCells="973">
      <PointData>
        <DataArray type="Float32" Name="ux" format="ascii" RangeMin="-1.2778520584" RangeMax="0.84126925468">
          -0.064410828054 -0.14115875959 -0.03578273952 -0.056512754411 -0.071573421359 -0.027044119313
          -0.14045675099 -0.18753945827 -0.26063135266 -0.27956518531 -0.21815532446 -0.27832514048
          -0.19029168785 -0.27565810084 0.054921798408 0.031120637432 0.066154055297 0.032875377685
          -0.18040724099 -0.27232864499 -0.1946913451 -0.26334056258 -0.28629329801 0.095042817295
          0.07520647347 0.06480627507 -0.14599701762 -0.11607696116 -0.19208487868 -0.22197954357
          -0.072965696454 -0.16514487565 -0.21135663986 -0.10255198926 -0.050195038319 -0.030846713111
          0.037590458989 -0.18795967102 -0.28849887848 -0.24743914604 -0.15425348282 -0.28896060586
          -0.23467092216 -0.20517070591 -0.17469668388 -0.16645595431 -0.13055844605 -0.099160909653
          -0.045197308064 -0.32868403196 -0.34472236037 -0.11632592231 -0.058686990291 -0.036031607538
          0.037867750973 -0.0033120114822 0.073707215488 -0.3055164814 -0.31340971589 -0.10961671174
          -0.14028181136 -0.14750449359 -0.10140571743 -0.06820268929 -0.14290748537 -0.18215458095
          -0.16336797178 -0.15398958325 -0.1310724318 -0.10590412468 -0.19495862722 -0.11244620383
          -0.069074466825 -0.053510930389 -0.17889107764 -0.070864237845 -0.04179835692 -0.029786681756
          -0.068232566118 -0.096246264875 -0.037812754512 -0.017263064161 -0.022308947518 -0.033117752522
          -0.048312325031 -0.066395990551 -0.0010253440123 -0.058279175311 -0.0799555704 -0.094083756208
          -0.0052320086397 -0.0019145183032 0.082632392645 0.11696636677 -0.01833047159 -0.089614853263
          0.071106232703 0.17620411515 0.13576352596 0.08910766989 0.049273096025 -0.015814458951
          0.22429850698 -0.00078746362124 -0.073440469801 -0.11392254382 0.20725895464 0.1423676759
          0.23607860506 0.27254214883 0.12088301778 0.032361593097 0.22131989896 0.33815279603
          0.29284578562 0.24563312531 0.19786374271 0.12042716146 0.3877927959 0.13853394985
          0.044595304877 -1.565317325e-05 0.36142581701 0.21207873523 0.32598733902 0.35796773434
          0.19824118912 0.1000963971 0.32788693905 0.48159715533 0.40888875723 0.36230841279
          0.29290038347 0.20221874118 0.52941423655 0.22486715019 0.11473631859 0.065538085997
          0.4851231277 0.16936220229 0.34431126714 0.39214786887 0.14837227762 0.0023978108075
          0.36184957623 0.59168869257 0.47825565934 0.41817551851 0.29699954391 0.15892894566
          0.65357071161 0.19749604166 0.019968112931 -0.052900828421 0.57846927643 0.11555708945
          0.2941711843 0.34099057317 0.088560670614 -0.063229955733 0.310649544 0.558632195
          0.43266361952 0.37079527974 0.23832377791 0.090807728469 0.62244516611 0.12968863547
          -0.065470412374 -0.1353122443 0.54009819031 0.078719377518 0.22909678519 0.27748593688
          0.0469699651 -0.0858521685 0.23704135418 0.46910631657 0.35445427895 0.29251244664
          0.18086203933 0.040468957275 0.52554231882 0.066140577197 -0.10880239308 -0.1610597074
          0.44581565261 -0.083389520645 0.076166249812 0.12783896923 -0.12106508017 -0.25760933757
          0.083234332502 0.32955807447 0.20619051158 0.14525778592 0.027162296697 -0.1251758039
          0.38790285587 -0.096058927476 -0.28677782416 -0.34523761272 0.30796092749 -0.24605195224
          -0.064373478293 -0.0026391297579 -0.29199466109 -0.45110663772 -0.065198145807 0.21150591969
          0.077754341066 0.0057570259087 -0.12466844171 -0.29666846991 0.28341665864 -0.257578969
          -0.46472904086 -0.54018259048 0.19818112254 -0.34395250678 -0.16852067411 -0.1133030504
          -0.37696531415 -0.52892917395 -0.16857194901 0.064886622131 -0.042050372809 -0.11480870098
          -0.22860783339 -0.37966427207 0.13221524656 -0.34144899249 -0.52714294195 -0.59760725498
          0.069991461933 -0.40816670656 -0.23553848267 -0.18218313158 -0.43571463227 -0.58337908983
          -0.22293260694 -0.00043673015898 -0.10909754038 -0.16217306256 -0.28716823459 -0.42892509699
          0.060851890594 -0.3838327527 -0.56791472435 -0.64060491323 -0.005137654487 -0.43049243093
          -0.24875549972 -0.19024431705 -0.46402671933 -0.61951065063 -0.23974680901 0.0061120879836
          -0.11296661943 -0.17793363333 -0.30729210377 -0.45495760441 0.07442548871 -0.41142073274
          -0.60761332512 -0.68873232603 0.0052736462094 -0.407969594 -0.20636411011 -0.12940253317
          -0.45731887221 -0.63940340281 -0.20955330133 0.078713849187 -0.056203063577 -0.14094737172
          -0.27395015955 -0.46249294281 0.16039961576 -0.41740038991 -0.64396649599 -0.73000180721
          0.086978726089 -0.21611185372 0.026630690321 0.10721479356 -0.26643410325 -0.4827863276
          0.025768488646 0.35562038422 0.20200148225 0.10598017275 -0.054519549012 -0.26436951756
          0.45943051577 -0.21593664587 -0.47851422429 -0.58469933271 0.36637878418 -0.011403402314
          0.24844293296 0.33549186587 -0.062566027045 -0.29092600942 0.23558662832 0.59785783291
          0.43263047934 0.3139822185 0.15667289495 -0.068457528949 0.71268850565 -0.020749609917
          -0.28503873944 -0.39179548621 0.61164873838 0.097053036094 0.34706053138 0.42636841536
          0.049593981355 -0.16798165441 0.33902600408 0.68141591549 0.52574247122 0.40950152278
          0.26332852244 0.049964163452 0.7941852808 0.094446763396 -0.16067613661 -0.264901191
          0.69755429029 0.12531273067 0.3796594739 0.45995557308 0.08000190556 -0.14274741709
          0.38840162754 0.73543524742 0.57026588917 0.4705453217 0.30217656493 0.086988680065
          0.84126925468 0.14214806259 -0.13378874958 -0.24055726826 0.73703306913 -0.035403955728
          -0.11760136485 -0.13805785775 -0.026259701699 0.051728930324 -0.12293288112 -0.24075204134
          -0.18080848455 -0.15153944492 -0.096095971763 -0.024153113365 -0.27005550265 -0.045455545187
          0.041490789503 0.082589238882 -0.23030734062 -0.12616281211 -0.25140628219 -0.16670908034
          -0.10275401175 -0.024089515209 -0.047772780061 0.054714430124 0.098012372851 0.14790806174
          0.16105087101 0.46798443794 0.51790356636 0.53096234798 0.08717045188 0.44862794876
          0.037283353508 0.41353797913 0.14449030161 0.21752618253 0.18397572637 0.5101094842
          0.59498351812 0.55507516861 0.16812759638 0.53013658524 0.1301382333 0.49669188261
          0.086347475648 0.44223383069 0.2283796072 0.61650848389 0.097484491765 0.44232934713
          0.037184342742 0.38273745775 0.013160731643 0.37916344404 0.21044844389 0.58893477917
          0.70071136951 0.73186385632 0.73420393467 0.70274168253 0.68746459484 0.73688399792
          0.78211146593 0.76030439138 0.74381667376 0.72742849588 0.70239400864 0.78892016411
          0.69807577133 0.67673313618 0.67778408527 0.7667196393 0.65022993088 0.68719911575
          0.68968045712 0.66118615866 0.63498020172 0.69717788696 0.72451752424 0.70921701193
          0.69651031494 0.68596446514 0.67049527168 0.73879879713 0.6742092967 0.65288031101
          0.63678151369 0.72380292416 0.46893963218 0.52047741413 0.52985078096 0.47127014399
          0.42549782991 0.52453714609 0.57304292917 0.55394071341 0.53666996956 0.51161795855
          0.4778881371 0.59066390991 0.49266833067 0.44743180275 0.4253231585 0.57871985435
          0.2421656996 0.29995217919 0.31687182188 0.23233795166 0.18579104543 0.29549852014
          0.36393857002 0.33625620604 0.3072847724 0.28229087591 0.23081965744 0.38484510779
          0.23900090158 0.18500268459 0.17091323435 0.36772423983 -0.066519908607 -0.017115106806
          1.5657116819e-05 -0.074558854103 -0.11486826092 -0.017496628687 0.049745306373 0.019466841593
          -0.0059552253224 -0.034260448068 -0.074844025075 0.07524933666 -0.068098329008 -0.11640986055
          -0.13563737273 0.052894540131 -0.4436904788 -0.36079862714 -0.31989315152 -0.4727781415
          -0.54935222864 -0.35690930486 -0.2249378413 -0.28995245695 -0.31975245476 -0.39182201028
          -0.46801176667 -0.18855577707 -0.44026094675 -0.54756176472 -0.59048587084 -0.22061081231
          -0.6528570056 -0.53088480234 -0.47529169917 -0.68880730867 -0.80395328999 -0.53556293249
          -0.35442262888 -0.43637993932 -0.48687127233 -0.5797303319 -0.68962478638 -0.29890492558
          -0.65783447027 -0.80286604166 -0.86518251896 -0.3422139585 -0.58539175987 -0.41546940804
          -0.35041230917 -0.62804019451 -0.77829259634 -0.42853713036 -0.19290049374 -0.29723998904
          -0.37364110351 -0.47729688883 -0.62909507751 -0.121213153 -0.59433734417 -0.77837455273
          -0.85058033466 -0.17656895518 -0.45909714699 -0.24136337638 -0.16813120246 -0.50019448996
          -0.68835914135 -0.24845761061 0.046861469746 -0.086748383939 -0.18023321033 -0.31851777434
          -0.50006633997 0.14171752334 -0.4539423883 -0.67577511072 -0.7710134387 0.062577992678
          -0.32415485382 -0.091184981167 -0.0052785845473 -0.37288859487 -0.57629531622 -0.097005330026
          0.22303444147 0.077814795077 -0.021927671507 -0.16846564412 -0.37241986394 0.32362309098
          -0.32741236687 -0.57357013226 -0.67252606153 0.23805809021 -0.080690272152 0.088985599577
          0.15156809986 -0.1227061972 -0.27923807502 0.08846783638 0.3274769187 0.21493287385
          0.14562015235 0.033655475825 -0.12387636304 0.3966049552 -0.088195830584 -0.28505715728
          -0.36283066869 0.33226588368 0.22787566483 0.30225679278 0.32377409935 0.21127262712
          0.14279988408 0.3010058701 0.41945189238 0.36130961776 0.33074742556 0.28026044369
          0.20271477103 0.44394886494 0.21753239632 0.12572433054 0.099368982017 0.40335181355
          0.46278780699 0.48594963551 0.48478427529 0.46618974209 0.44510811567 0.49220237136
          0.53532892466 0.50897175074 0.50355088711 0.48315107822 0.46268993616 0.53731608391
          0.46538513899 0.43761646748 0.43418449163 0.51219540834 0.55113941431 0.54390102625
          0.52444857359 0.5679795742 0.57997256517 0.5605712533 0.5650587678 0.55276542902
          0.56297534704 0.55696767569 0.56938815117 0.55544710159 0.5619866848 0.56875425577
          0.58213084936 0.53103423119 0.41255575418 0.41044607759 0.39317330718 0.42928084731
          0.4391657114 0.43176439404 0.4204569459 0.41770285368 0.43273559213 0.42849430442
          0.44012668729 0.40841653943 0.43942016363 0.45014736056 0.45489814878 0.39253130555
          0.050642732531 0.062188897282 0.047163069248 0.06605052948 0.067276619375 0.078508600593
          0.078701928258 0.069641314447 0.083691969514 0.073656193912 0.079337544739 0.068609260023
          0.086488470435 0.089198045433 0.079492911696 0.060020882636 -0.40233924985 -0.41605734825
          -0.42774894834 -0.38983210921 -0.37813353539 -0.40474653244 -0.43508195877 -0.4230620563
          -0.40727514029 -0.40364104509 -0.37874424458 -0.43994408846 -0.3747882247 -0.35544195771
          -0.35549539328 -0.43919828534 -0.91794574261 -0.93171072006 -0.93512487411 -0.91006362438
          -0.90075349808 -0.93326866627 -0.95669454336 -0.94415378571 -0.93439602852 -0.92393809557
          -0.91271966696 -0.96298480034 -0.91433334351 -0.8952601552 -0.88708436489 -0.9573379159
          -0.14221507311 -0.12401552498 -0.13398148119 -0.12288557738 -0.13919709623 -0.075212582946
          -0.067823387682 -0.099637962878 -0.046402391046 -0.10033344477 -0.089440509677 -0.097191631794
          -0.051947493106 -0.081683926284 -0.11618150771 -0.12304930389 -0.11835710704 -0.22172518075
          -0.14453049004 -0.099191464484 -0.033068500459 -0.053828652948 0.022082587704 -0.82839620113
          -0.92031127214 -0.83420830965 -0.59781956673 -0.62401491404 -0.58169037104 -0.43413540721
          -0.29267078638 -0.24482667446 -0.043682191521 -0.033289071172 0.054975137115 -0.27338114381
          -1.0872354507 -1.1908869743 -1.083096385 -0.8042576313 -0.85003817081 -0.80185574293
          -0.64017498493 -0.47117301822 -0.43065580726 -0.20532871783 -0.18972441554 -0.095331124961
          -0.4562998414 -1.1664712429 -1.2778520584 -1.1625238657 -0.86872303486 -0.91841137409
          -0.86707985401 -0.69452756643 -0.51418870687 -0.47886201739 -0.24869814515 -0.24332031608
          -0.14392597973 -0.51371473074 -0.91193413734 -1.0013406277 -0.91672462225 -0.68359136581
          -0.7272413373 -0.68863004446 -0.5543499589 -0.40864747763 -0.38951268792 -0.20743116736
          -0.22013585269 -0.1351774931 -0.42407405376 -0.41791567206 -0.45544353127 -0.41518744826
          -0.31053188443 -0.32289138436 -0.32411471009 -0.22990356386 -0.1512427032 -0.13532300293
          -0.03239396587 -0.050533968955 0.003251552349 -0.18005682528 1.1452428589e-10 2.6953830834e-10
          -1.2011190653e-10 1.7831947724e-11 -1.1779594661e-11 -4.9912622646e-11 1.3125983807e-11 1.7251776179e-12
          -2.3383917957e-13 0 0 0 -3.2309980293e-14
        </DataArray>
        <DataArray type="Float32" Name="uy" format="ascii" RangeMin="-0.91901123524" RangeMax="1.1054178476">
          0.064921393991 0.10092101991 0.10099174827 0.25261563063 0.45352259278 0.41411173344
          0.42648303509 0.071037523448 0.10981214792 0.1499594897 0.26138848066 0.43013116717
          0.45506924391 0.37996214628 0.089235000312 0.13341964781 0.43084132671 0.36822623014
          0.11614611 0.27138724923 0.38780578971 0.11844309419 0.37761315703 0.39327645302
          0.24907775223 0.10332423449 0.2545157373 0.40880930424 0.32751172781 0.40331190825
          0.81398451328 0.7031878829 0.80983805656 0.29962149262 0.66483801603 0.34940746427
          0.73266756535 0.168402493 0.13942556083 0.24366895854 0.49097284675 0.45132541656
          0.59077215195 0.089381814003 0.38732281327 0.24788470566 0.59326595068 0.2019662708
          0.53482413292 0.23457285762 0.57692199945 0.098924294114 0.39968267083 0.15691536665
          0.47641456127 0.25631710887 0.60024482012 0.34289485216 0.71858102083 -0.14331264794
          -0.17816214263 -0.13895483315 -0.19169463217 -0.17149950564 -0.25633212924 -0.2599902153
          -0.21412120759 -0.2918407619 -0.21932908893 -0.2432436794 -0.20779050887 -0.29402759671
          -0.2648588419 -0.22044986486 -0.15881252289 -0.65209370852 -0.62219470739 -0.64602291584
          -0.6229134798 -0.63101422787 -0.58686709404 -0.57345944643 -0.59390288591 -0.56984758377
          -0.60319042206 -0.59797942638 -0.58169519901 -0.5724875927 -0.58106696606 -0.60301762819
          -0.61225217581 -0.90900576115 -0.82010805607 -0.90788549185 -0.78456395864 -0.83628994226
          -0.65770500898 -0.63021475077 -0.72711378336 -0.58694070578 -0.73309117556 -0.68992060423
          -0.72014796734 -0.59141993523 -0.64120477438 -0.72992128134 -0.82668721676 -0.82909941673
          -0.72770422697 -0.82663148642 -0.68696516752 -0.74593406916 -0.53942734003 -0.51562017202
          -0.62922525406 -0.45391172171 -0.63177144527 -0.57042044401 -0.62874627113 -0.45478367805
          -0.515825212 -0.62284183502 -0.75106573105 -0.62900215387 -0.52237176895 -0.63776296377
          -0.47453472018 -0.53527289629 -0.29605746269 -0.26876452565 -0.40927261114 -0.18560703099
          -0.41012781858 -0.3351739645 -0.40961608291 -0.1860974133 -0.26459029317 -0.39867886901
          -0.5534863472 -0.41730946302 -0.25811371207 -0.42577368021 -0.19324274361 -0.28521582484
          0.066617019475 0.10346862674 -0.096376612782 0.23553091288 -0.097631655633 0.0070778355002
          -0.10409146547 0.23669089377 0.11391352862 -0.087642334402 -0.3044064343 -0.047901757061
          0.12354401499 -0.051624108106 0.1926689893 0.08339766413 0.48325893283 0.52484554052
          0.30051732063 0.66699665785 0.30307394266 0.41171419621 0.30161550641 0.66598498821
          0.52583092451 0.29977726936 0.077119342983 0.30333462358 0.4571736753 0.3021273911
          0.51823931932 0.41934534907 0.78488343954 0.82218915224 0.61504209042 0.9580835104
          0.61622786522 0.7220915556 0.61125689745 0.9580257535 0.81662267447 0.61217546463
          0.41201168299 0.38712492585 0.56194198132 0.39436998963 0.62102174759 0.50554865599
          0.91909694672 0.95862489939 0.73942548037 1.1030135155 0.73349756002 0.84569305182
          0.73430615664 1.1054178476 0.95214754343 0.71958130598 0.51957637072 0.16462428868
          0.36326083541 0.17063762248 0.43544352055 0.30888795853 0.75727492571 0.79830425978
          0.55674695969 0.95607459545 0.55857294798 0.68152034283 0.55330580473 0.95883870125
          0.80427110195 0.55645555258 0.31484824419 -0.12528310716 0.053554754704 -0.12286377698
          0.11096376181 0.0058025754988 0.38439968228 0.42225247622 0.22026407719 0.55173969269
          0.21896694601 0.32116276026 0.22355474532 0.5586078763 0.42736122012 0.2144972682
          0.013096150011 -0.37624430656 -0.20910055935 -0.37460276484 -0.1490970403 -0.24757987261
          0.10520672798 0.14396713674 -0.047201331705 0.26288834214 -0.050554919988 0.044301491231
          -0.04480054602 0.26935955882 0.14460337162 -0.048782467842 -0.2414893955 -0.60123199224
          -0.41672080755 -0.59829682112 -0.34968245029 -0.45948797464 -0.058300606906 -0.015852015465
          -0.23715344071 0.12094470114 -0.23809197545 -0.12531469762 -0.23292759061 0.12522132695
          -0.008604827337 -0.2341825664 -0.45729982853 -0.80123907328 -0.58790946007 -0.79039603472
          -0.51072174311 -0.6423869133 -0.17189738154 -0.12011494488 -0.37710475922 0.036904279143
          -0.37998762727 -0.25178357959 -0.36719542742 0.043576784432 -0.11276741326 -0.37667235732
          -0.61948001385 -0.91901123524 -0.66205239296 -0.90921473503 -0.5708630085 -0.7293279171
          -0.15817005932 -0.098700396717 -0.40706121922 0.085506401956 -0.41597232223 -0.25609403849
          -0.39174640179 0.091430090368 -0.093886338174 -0.40951025486 -0.70839858055 -0.75133091211
          -0.48864781857 -0.75874376297 -0.37918841839 -0.53955942392 0.044405199587 0.10893438011
          -0.2225984633 0.30349105597 -0.21932668984 -0.054548382759 -0.21984228492 0.30086025596
          0.10899093002 -0.20893454552 -0.55454277992 -0.4013287127 -0.14732526243 -0.40712600946
          -0.048709888011 -0.2100251466 0.36448532343 0.42563441396 0.11034985632 0.61573565006
          0.11062537134 0.26820731163 0.10889883339 0.61310642958 0.42316141725 0.1101051718
          -0.20698882639 -0.048130948097 0.21608543396 -0.046677138656 0.30797180533 0.14753210545
          0.73816049099 0.80430662632 0.48332393169 0.9957550168 0.47294187546 0.63497340679
          0.48608982563 0.99463838339 0.79511457682 0.467020154 0.15724211931 0.85002994537
          0.74608319998 0.84343832731 0.71290487051 0.77229815722 0.55546629429 0.52689862251
          0.6496527195 0.46612110734 0.64660000801 0.59626019001 0.64136242867 0.46778666973
          0.53586953878 0.65063637495 0.76357483864 0.3491563797 0.33656802773 0.31154337525
          0.39023420215 0.37011009455 0.31215661764 0.34927967191 -0.27968105674 -0.34226897359
          -0.29318410158 -0.49042493105 -0.53895133734 -0.48579868674 -0.35736390948 -0.55624550581
          -0.31544488668 -0.52004408836 -0.44996219873 -0.45131498575 -0.39375239611 -0.6405479908
          -0.64677196741 -0.58713793755 -0.49608334899 -0.69789969921 -0.39702233672 -0.58538496494
          -0.431129843 -0.61498105526 -0.39057272673 -0.57720398903 -0.50338661671 -0.69093739986
          -0.46122726798 -0.63545370102 -0.38819950819 -0.56979864836 -0.33136832714 -0.51681661606
          -0.45640823245 -0.47038421035 -0.44359463453 -0.48282155395 -0.47065767646 -0.51324641705
          -0.51839292049 -0.48748615384 -0.54363405704 -0.49250724912 -0.50160390139 -0.47822582722
          -0.53650259972 -0.50505590439 -0.48597732186 -0.44996964931 -0.14071977139 -0.16032217443
          -0.13143339753 -0.17347331345 -0.16250112653 -0.21099990606 -0.2147449553 -0.18577216566
          -0.22878132761 -0.1892119199 -0.20241245627 -0.18098160625 -0.2304084003 -0.21559031308
          -0.19060193002 -0.15022647381 0.10334458947 0.06259316206 0.1105171442 0.04385811463
          0.063846290112 -0.015965230763 -0.029983397573 0.022124666721 -0.054782036692 0.023004703224
          -0.0057585518807 0.01479177922 -0.055843960494 -0.032933540642 0.010293628089 0.073120772839
          0.17127877474 0.12440443039 0.17376297712 0.099547050893 0.1212490797 0.036155577749
          0.024131916463 0.084097981453 -0.017915124074 0.078463003039 0.047695565969 0.084114469588
          -0.015181762166 0.020059861243 0.067762888968 0.14150464535 0.13569329679 0.085700266063
          0.13806803524 0.064938783646 0.098300330341 -0.012259494513 -0.019440090284 0.036052279174
          -0.05874709785 0.033769115806 0.0032586958259 0.039527203888 -0.059388786554 -0.022248227149
          0.038979075849 0.10200560093 0.33896037936 0.23782165349 0.33279883862 0.20437775552
          0.27007862926 0.046751689166 0.027221085504 0.1352211386 -0.041289363056 0.14025597274
          0.086726382375 0.14083506167 -0.04290824756 0.030440494418 0.15264835954 0.25776261091
          0.65503436327 0.50781959295 0.64277130365 0.46134114265 0.55475729704 0.23604486883
          0.20374254882 0.36578974128 0.10841808468 0.37309980392 0.28505164385 0.35930085182
          0.10119753331 0.19787016511 0.37306880951 0.52717030048 0.79795879126 0.61693525314
          0.78539097309 0.55285322666 0.66311091185 0.27817383409 0.23721285164 0.44227525592
          0.1108353883 0.44789105654 0.33949264884 0.44014558196 0.10583838075 0.23057489097
          0.44190627337 0.646743536 0.85346359015 0.63322097063 0.85236853361 0.54395359755
          0.67555993795 0.20044201612 0.14352668822 0.41208842397 -0.01429810375 0.40967172384
          0.27641183138 0.41224253178 -0.013142712414 0.1453178376 0.40600976348 0.68373280764
          0.76333278418 0.52264714241 0.75648629665 0.43187370896 0.58277761936 0.049772005528
          -0.008567490615 0.28069487214 -0.1851593554 0.2834713161 0.13725763559 0.2753687799
          -0.18987540901 -0.011852841824 0.27863571048 0.56432139874 0.36588561535 0.17326803505
          0.35282501578 0.11126927286 0.23263041675 -0.20013685524 -0.24195192754 -0.014336930588
          -0.38034191728 -0.011981485412 -0.1264179945 -0.020330876112 -0.38878336549 -0.2491581887
          -0.0072195068933 0.20722019672 -0.19330386817 -0.26279202104 -0.19036355615 -0.29751497507
          -0.2489887774 -0.43210497499 -0.44822379947 -0.33744180202 -0.52471327782 -0.34319752455
          -0.40302443504 -0.33181029558 -0.53010028601 -0.4597710669 -0.34865304828 -0.2364718616
          -0.54545521736 -0.55854928493 -0.53000754118 -0.57681781054 -0.56875240803 -0.62229806185
          -0.62725514174 -0.58223623037 -0.65917885303 -0.59003472328 -0.61496758461 -0.5707205534
          -0.6578193903 -0.62553948164 -0.59348231554 -0.53281539679 -0.64348691702 -0.62161123753
          -0.62490952015 -0.62673205137 -0.63923311234 -0.62886196375 -0.62796002626 -0.6189314723
          -0.63768327236 -0.62519729137 -0.62767922878 -0.60386168957 -0.63141518831 -0.61703228951
          -0.61885470152 -0.59883451462 -0.39447027445 -0.37098807096 -0.37440335751 -0.37702956796
          -0.39145392179 -0.34139245749 -0.32994532585 -0.35024470091 -0.32340028882 -0.36034482718
          -0.35189566016 -0.34042647481 -0.32635399699 -0.33617985249 -0.36529427767 -0.35258698463
          0.080809742212 0.092466555536 0.093055076897 0.080509707332 0.072640031576 0.10264264792
          0.11024801433 0.098235569894 0.11263127625 0.097459755838 0.094086408615 0.10406151414
          0.10790262371 0.093664713204 0.078636460006 0.10163988918 0.37689658999 0.38773363829
          0.38233497739 0.38899958134 0.37993338704 0.41659146547 0.4230928719 0.40096801519
          0.44078728557 0.39982196689 0.40838822722 0.39728885889 0.44291868806 0.41916289926
          0.39629909396 0.39315316081 0.6683319211 0.68716096878 0.67147344351 0.68862402439
          0.67548042536 0.72216403484 0.7281422019 0.7047496438 0.74053364992 0.70245069265
          0.71475279331 0.70935404301 0.74153989553 0.72797387838 0.70287448168 0.68590384722
          0.0093689691275 -0.053678121418 0.011070688255 -0.080491825938 -0.041358329356 -0.16796439886
          -0.1689042598 -0.11114400625 -0.21288836002 -0.11479894817 -0.15446919203 -0.10411290824
          -0.22459709644 -0.19295987487 -0.12027671933 -0.034504130483 0.10554979742 0.10973240435
          0.097610294819 0.10656302422 0.10701384395 0.091149628162 0.10164619237 0.53217619658
          0.25097748637 -0.026298934594 -0.20438316464 0.25110507011 0.71017682552 0.24808910489
          -0.20627811551 0.24726930261 -0.034237675369 0.53031682968 0.24832391739 0.70571732521
          0.69204986095 0.36218002439 0.028190303594 -0.16996574402 0.35737517476 0.89047312737
          0.35766363144 -0.16801166534 0.34955528378 0.029006479308 0.66841691732 0.34180310369
          0.88077235222 0.63993769884 0.29803797603 -0.03454335779 -0.23399113119 0.30461165309
          0.84719598293 0.3037545681 -0.22383192182 0.30282819271 -0.025119831786 0.61768704653
          0.29296520352 0.83175033331 0.37059402466 0.12208467722 -0.1351120621 -0.29500678182
          0.11477680504 0.51376205683 0.10901536793 -0.28852531314 0.1069335863 -0.13503836095
          0.34324046969 0.10708709806 0.50015622377 0.075001753867 -0.040761429816 -0.16819523275
          -0.25014424324 -0.046113960445 0.15907336771 -0.045835644007 -0.25335583091 -0.045782111585
          -0.16806484759 0.092599004507 -0.034899864346 0.1684101671 2.6670946267e-12 4.5524764514e-11
          -2.2771024649e-11 3.5904944382e-12 -9.5132593209e-13 -1.8993502517e-12 3.2145434318e-13 -1.111289229e-12
          -6.3945241246e-13 0 0 0 6.5340045657e-13
        </DataArray>
        <DataArray type="Float32" Name="uz" format="ascii" RangeMin="-0.74848800898" RangeMax="0.31390237808">
          -0.06881287694 -0.088131189346 -0.1074340865 -0.088454164565 -0.12333851308 -0.11348620057
          -0.10620050132 -0.07042004168 -0.091343134642 -0.064555838704 -0.081181377172 -0.076397418976
          -0.1168654263 -0.10385652632 -0.11360593885 -0.073739923537 -0.12436171621 -0.11387128383
          -0.098536320031 -0.087749622762 -0.082966759801 -0.085871100426 -0.068870328367 -0.12197501957
          -0.10138438642 -0.13738283515 -0.080760456622 0.0058904713951 0.11660350114 0.15060542524
          0.006129398942 0.073759309947 0.11651679128 -0.010310605168 -0.028837608173 -0.1101474762
          -0.087235704064 0.12739919126 0.27291849256 0.19820651412 0.044863514602 0.13361114264
          0.11204998195 0.16399720311 0.049756161869 0.08795992285 0.032614022493 -0.0019745083991
          -0.035884518176 0.311026752 0.18763659894 0.023349585012 -0.032453782856 -0.098136164248
          -0.098642639816 -0.1489097923 -0.12496607006 0.26507493854 0.18532346189 -0.023676892743
          0.10410602391 0.12382979691 -0.018367458135 -0.13004283607 0.13883964717 0.29301050305
          0.19862517715 0.19513405859 0.084194131196 0.0015070199734 0.31390237808 0.045349560678
          -0.092082329094 -0.1562602371 0.25244134665 -0.0317122899 0.064869396389 0.063214175403
          -0.011004300788 -0.087047360837 0.10883571953 0.20591174066 0.1353816092 0.15513080359
          0.064186707139 0.016141051427 0.20837453008 0.064291544259 -0.033254250884 -0.089145235717
          0.15657037497 -0.035918880254 0.0086235273629 -0.027718476951 0.0085256816819 -0.01194590982
          0.064110442996 0.082674816251 0.047104753554 0.093728922307 0.034788053483 0.041353989393
          0.053752217442 0.084274120629 0.054232440889 0.018257081509 0.011391345412 -0.020449688658
          -0.031492400914 -0.076536864042 0.029392326251 0.047999218106 0.033289317042 -0.012728101574
          -0.027689363807 0.056659944355 0.014207119122 0.065730266273 -0.074453987181 0.10614836961
          0.12468107045 0.10108971596 -0.098586060107 0.038668736815 -0.022578863427 -0.058447826654
          0.070005491376 0.12659719586 0.020926907659 -0.064769677818 -0.052559737116 0.021329542622
          0.019751401618 0.095811039209 -0.12408526987 0.10746776313 0.16545687616 0.17575238645
          -0.12308540195 0.13840255141 0.033638309687 0.009343476966 0.14625251293 0.23636937141
          0.032873608172 -0.09215836972 -0.03360395506 -0.00069440965308 0.061423502862 0.13705742359
          -0.13363580406 0.11226616055 0.21241049469 0.26245030761 -0.097585424781 0.20234544575
          0.10452005267 0.084405221045 0.20175650716 0.29191112518 0.072113759816 -0.05314707011
          0.030072173104 0.02307334356 0.11979546398 0.17959061265 -0.068121381104 0.13827826083
          0.24967312813 0.3093239665 -0.016639035195 0.22094453871 0.14620304108 0.15236160159
          0.19221818447 0.25589630008 0.08713901788 0.0055270115845 0.083083689213 0.03607102111
          0.13455435634 0.1574973464 0.023171830922 0.10595866293 0.18753290176 0.24222643673
          0.079331219196 0.20176258683 0.17269398272 0.22127403319 0.13933847845 0.15417075157
          0.086533807218 0.081685222685 0.13483642042 0.042924158275 0.12626650929 0.092269361019
          0.13825720549 0.033420529217 0.056273646653 0.10009690374 0.19319666922 0.14313696325
          0.17068229616 0.22642803192 0.088279336691 0.050873592496 0.10003126413 0.18189255893
          0.17806912959 0.089103840292 0.11545915157 0.047006320208 0.25307112932 0.0059577049688
          -0.03328505531 -0.014041424729 0.26927483082 0.11678855866 0.16265557706 0.21445687115