<VTKFile type="UnstructuredGrid" version="1.0" byte_order="LittleEndian" header_type="UInt64">
  <UnstructuredGrid>
    <Piece NumberOfPoints="791" NumberOfCells="973">
      <PointData>
        <DataArray type="Float32" Name="ux" format="ascii" RangeMin="-0.49002856016" RangeMax="0.3380536437">
          0.18494793773 0.19576095045 0.20008359849 0.18250624835 0.18471410871 0.19921413064
          0.19612504542 0.1851477176 0.1932464987 0.18724480271 0.18298868835 0.19492326677
          0.18525648117 0.18764823675 0.1937071532 0.18661496043 0.19193388522 0.18611560762
          0.20612068474 0.19341720641 0.20748874545 0.2058134675 0.20853787661 0.20460388064
          0.1921326369 0.20704175532 0.18125979602 0.29076316953 0.29699912667 0.29875347018
          0.26388701797 0.26972332597 0.27167063951 0.29030799866 0.26313048601 0.28514924645
          0.2582077384 0.2968043983 0.30416381359 0.30116942525 0.26934534311 0.27637135983
          0.2736029923 0.29805231094 0.27049469948 0.29520827532 0.26782462001 0.29066905379
          0.26336479187 0.30729019642 0.27951189876 0.29157152772 0.26427900791 0.28645738959
          0.25925794244 0.28386181593 0.25672540069 0.30531689525 0.27781233191 0.30750387907
          0.31383091211 0.3156658113 0.30705776811 0.30183151364 0.31358149648 0.32097810507
          0.31801462173 0.31478002667 0.31199786067 0.30740490556 0.3242251873 0.30828377604
          0.30315706134 0.30052614212 0.32230910659 0.31325921416 0.31964594126 0.32148134708
          0.31279709935 0.3075068295 0.31943774223 0.32691508532 0.32389697433 0.32067379355
          0.31779998541 0.3131583333 0.33015701175 0.31408241391 0.3088541925 0.30619135499
          0.32819977403 0.30859908462 0.31481778622 0.31665062904 0.30804762244 0.30289790034
          0.31453362107 0.32195976377 0.31896927953 0.31575608253 0.31295135617 0.30834659934
          0.32515454292 0.30920964479 0.30406633019 0.30149719119 0.32322397828 0.29410493374
          0.29970735312 0.30136039853 0.29363757372 0.28899082541 0.29944190383 0.30611413717
          0.30345126987 0.30054801702 0.29803296924 0.29391136765 0.30903273821 0.29469272494
          0.2900788784 0.28777572513 0.30729299784 0.27030986547 0.27535292506 0.27680969238
          0.26991835237 0.26572313905 0.27513200045 0.28101345897 0.27868050337 0.2760835886
          0.27388101816 0.2702011168 0.2836304307 0.27092310786 0.26680925488 0.26469123363
          0.28212088346 0.23765695095 0.24217996001 0.24354498088 0.23731897771 0.23354268074
          0.24200452864 0.24715159833 0.24513395131 0.24283398688 0.24085852504 0.2376268357
          0.24950507283 0.23832425475 0.23466458917 0.23267655075 0.248254776 0.19872871041
          0.20241996646 0.20361106098 0.19845888019 0.19531695545 0.20218455791 0.20618110895
          0.20472799242 0.20279014111 0.20130212605 0.19876545668 0.20823226869 0.19938960671
          0.19650611281 0.19476640224 0.20741067827 0.15520596504 0.1581337899 0.15913511813
          0.1550655216 0.15256682038 0.15792316198 0.16077551246 0.15985496342 0.15829788148
          0.15727220476 0.15540358424 0.16248995066 0.1559689194 0.15385778248 0.15234395862
          0.16206002235 0.10842165351 0.11088193953 0.11177975684 0.10830211639 0.10617736727
          0.11068472266 0.11292617023 0.11226779968 0.1109912917 0.11016698927 0.10864977539
          0.11441452801 0.10917820036 0.10740163177 0.10604565591 0.11419148743 0.059841040522
          0.061965759844 0.062760092318 0.05970647186 0.057845171541 0.061743736267 0.063686929643
          0.063137859106 0.062019515783 0.061317749321 0.060004040599 0.06498478353 0.060471829027
          0.058960653841 0.057734884322 0.064830727875 0.010159673169 0.011898136698 0.012496399693
          0.010123648681 0.0086413184181 0.011742471717 0.013168470934 0.012813243084 0.011923192069
          0.011394401081 0.010383537039 0.014212013222 0.010763320141 0.0096104163677 0.0086334804073
          0.014138491824 -0.040716409683 -0.039463706315 -0.039046511054 -0.040698882192 -0.041753534228
          -0.03955475986 -0.038573939353 -0.038812335581 -0.039463106543 -0.039809819311 -0.040494512767
          -0.037800960243 -0.040229197592 -0.040991380811 -0.041682988405 -0.037863656878 -0.093103088439
          -0.092291913927 -0.092041261494 -0.093045271933 -0.093700490892 -0.09232454747 -0.091735690832
          -0.091860696673 -0.092276252806 -0.092489771545 -0.092851288617 -0.091232858598 -0.092688314617
          -0.093118064106 -0.09360101819 -0.091263696551 -0.14681863785 -0.14649310708 -0.14644011855
          -0.1467256248 -0.14697891474 -0.1465035975 -0.14636990428 -0.1463418752 -0.1465459168
          -0.14653423429 -0.14663852751 -0.14613325894 -0.14659960568 -0.14667314291 -0.14685483277
          -0.1461237669 -0.20195893943 -0.20203277469 -0.20213663578 -0.20183928311 -0.20174078643
          -0.20203027129 -0.20225860178 -0.20211750269 -0.20214179158 -0.20195749402 -0.20183862746
          -0.20224843919 -0.20193964243 -0.2017198652 -0.20162770152 -0.20222397149 -0.25930285454
          -0.25969919562 -0.25991359353 -0.25913706422 -0.25873988867 -0.25973111391 -0.26035702229
          -0.26003575325 -0.25994205475 -0.25955176353 -0.25914952159 -0.26050126553 -0.25932723284
          -0.25873535872 -0.25851157308 -0.26036664844 -0.31860601902 -0.31927293539 -0.31955826283
          -0.31840118766 -0.31777220964 -0.31927379966 -0.32025974989 -0.3197863698 -0.31955802441
          -0.31902867556 -0.31839984655 -0.32051441073 -0.31857565045 -0.31775510311 -0.31745353341
          -0.32025262713 -0.37879690528 -0.37959903479 -0.3798623085 -0.37861698866 -0.37794643641
          -0.37954717875 -0.38067501783 -0.38015463948 -0.37980672717 -0.37929430604 -0.37859991193
          -0.38099810481 -0.37875691056 -0.37794497609 -0.37762334943 -0.38069459796 0.21562348306
          0.22556093335 0.22069945931 0.22342148423 0.21625706553 0.23773989081 0.244180426
          0.23442015052 0.24486489594 0.23044347763 0.23114201427 0.23848196864 0.24034994841
          0.23194491863 0.22266152501 0.22953143716 0.21726411581 0.22116394341 0.22809422016
          0.20649498701 0.21223415434 0.22673015296 0.21780669689 0.26932704449 0.26608255506
          0.26481682062 0.29931589961 0.29680347443 0.29553696513 0.26986593008 0.2998739481
          0.27285799384 0.30236825347 0.26614665985 0.26254484057 0.26405549049 0.29698780179
          0.2944445312 0.29535874724 0.26523831487 0.29630106688 0.2671264708 0.29773041606
          0.26950857043 0.29954057932 0.26100507379 0.29312774539 0.26843592525 0.29851746559
          0.27164667845 0.30106604099 0.27359437943 0.30287390947 0.26167023182 0.2932279706
          0.32141375542 0.31954076886 0.31845119596 0.3219281733 0.32388004661 0.31981286407
          0.31817895174 0.31866502762 0.31929436326 0.32032868266 0.32158088684 0.31713941693
          0.32065296173 0.32255494595 0.32413569093 0.3168938756 0.33407399058 0.33279746771
          0.33184581995 0.33450555801 0.33598601818 0.33306273818 0.33227041364 0.33234035969
          0.33269762993 0.33337906003 0.33416378498 0.33146557212 0.33330646157 0.33463817835
          0.33603090048 0.33093076944 0.33675974607 0.33603876829 0.33523696661 0.33707153797
          0.3380536437 0.33631339669 0.3363622725 0.33601632714 0.33618631959 0.33643260598
          0.33668270707 0.33570879698 0.3359478116 0.33663675189 0.33783853054 0.33490028977
          0.32946330309 0.32916098833 0.32850039005 0.32961249352 0.33024466038 0.32946327329
          0.33031845093 0.32953241467 0.32958111167 0.32940152287 0.32918411493 0.32979029417
          0.32854500413 0.3286331594 0.32971271873 0.32867974043 0.3127348125 0.31294852495
          0.31248098612 0.3127258718 0.31287801266 0.31327435374 0.31498095393 0.31375047565
          0.31361052394 0.31300133467 0.31227877736 0.31464788318 0.31174829602 0.31118232012
          0.31203296781 0.31324353814 0.2864997983 0.28758260608 0.28745281696 0.28624603152
          0.28561937809 0.28786081076 0.29080867767 0.28900435567 0.28851291537 0.28731581569
          0.28581783175 0.29084938765 0.28551420569 0.28396290541 0.28440612555 0.2891767025
          0.25203496218 0.25414913893 0.25443923473 0.25153574347 0.24993771315 0.2543784678
          0.25870531797 0.25629332662 0.25535848737 0.25348612666 0.25110945106 0.25919887424
          0.25104957819 0.24837438762 0.24830655754 0.25720104575 0.21092328429 0.21408692002
          0.21474801004 0.21023055911 0.20772740245 0.21433320642 0.21994687617 0.21694788337
          0.21563215554 0.21310678124 0.20986926556 0.22088350356 0.21009044349 0.20629750192
          0.2057146728 0.21857488155 0.16371819377 0.16782745719 0.16883891821 0.16284184158
          0.15946155787 0.16801989079 0.17485715449 0.1713321805 0.16961246729 0.16650241613
          0.16248603165 0.17622569203 0.16294446588 0.15820209682 0.15716657043 0.17363511026
          0.11085338891 0.11577506363 0.11713096499 0.10978139192 0.10568656772 0.11591090262
          0.12383393943 0.1198521331 0.11775144935 0.11417257786 0.10946448892 0.12562428415
          0.11008318514 0.10450204462 0.10308289528 0.12277840078 0.052954349667 0.058679565787
          0.060303404927 0.051763173193 0.046923868358 0.058802936226 0.067709162831 0.063291139901
          0.060855552554 0.056811287999 0.051477402449 0.069866158068 0.05230114609 0.045915491879
          0.044094014913 0.066793084145 -0.010288461111 -0.0037242004182 -0.0018345977878 -0.011546267197
          -0.017080925405 -0.0035909642465 0.0062931603752 0.0014491879847 -0.0013374959817 -0.0058182729408
          -0.011770945974 0.0088078519329 -0.010749887675 -0.017878741026 -0.020105456933 0.0054943747818
          -0.078662090003 -0.071553751826 -0.069455303252 -0.080034568906 -0.086079068482 -0.071431100368
          -0.06083272025 -0.065991796553 -0.068991847336 -0.07384378463 -0.080223627388 -0.058048650622
          -0.079043276608 -0.08674326539 -0.089237339795 -0.061529844999 -0.15224604309 -0.14469353855
          -0.14240607619 -0.1537168622 -0.16016539931 -0.1446005702 -0.13351586461 -0.13886003196
          -0.14205874503 -0.1471542716 -0.15387380123 -0.13049699366 -0.15256391466 -0.16070982814
          -0.16345821321 -0.13406522572 -0.23029971123 -0.22245430946 -0.22000995278 -0.23185122013
          -0.23859368265 -0.22237342596 -0.21106179059 -0.21647801995 -0.21976387501 -0.22499956191
          -0.23193317652 -0.20791178942 -0.2305097729 -0.23893819749 -0.2419360429 -0.21143426001
          -0.3116376996 -0.30364766717 -0.30110120773 -0.31320983171 -0.32010570168 -0.30357706547
          -0.292216748 -0.29763409495 -0.30092135072 -0.30626314878 -0.31322836876 -0.28896999359
          -0.31166782975 -0.32023757696 -0.32341730595 -0.29241156578 -0.39462828636 -0.38661801815
          -0.38399100304 -0.3962430954 -0.40321519971 -0.3865917325 -0.37528976798 -0.38062801957
          -0.38392016292 -0.38926523924 -0.39623349905 -0.37199497223 -0.3945992589 -0.40320819616
          -0.40647667646 -0.3753297925 -0.47801274061 -0.46994942427 -0.46726065874 -0.47967037559
          -0.48672500253 -0.46994936466 -0.45857751369 -0.46394318342 -0.46726366878 -0.47262665629
          -0.47966831923 -0.45525175333 -0.47800394893 -0.48671200871 -0.49002856016 -0.45857870579
          0.21895813942 0.22282469273 0.21601907909 0.22769708931 0.22595134377 0.23508754373
          0.23381008208 0.22745458782 0.24052366614 0.22963359952 0.23514899611 0.22524040937
          0.24300071597 0.24059197307 0.23416061699 0.21832408011 0.2167121619 0.21870373189
          0.22685568035 0.20638090372 0.21304686368 0.22733278573 0.21985711157 0.13432498276
          0.13456204534 0.13441649079 0.13394314051 0.13399383426 0.13400352001 0.13368348777
          0.1333643496 0.13337288797 0.13292010128 0.13317552209 0.1329125613 0.13356281817
          0.089055031538 0.089596584439 0.090029910207 0.089701272547 0.08928886801 0.089301489294
          0.089068971574 0.088745363057 0.088811986148 0.087960794568 0.089140817523 0.088369943202
          0.089509479702 0.050031319261 0.05066934973 0.051488254219 0.051470134407 0.050735078752
          0.050824809819 0.05073678866 0.050586149096 0.050676740706 0.049770157784 0.051463991404
          0.050491206348 0.051607634872 0.020820742473 0.021567031741 0.022606523708 0.022719722241
          0.021762447432 0.021878929809 0.021850924939 0.021746804938 0.021849794313 0.020853593946
          0.022864641622 0.021738195792 0.022972807288 0.0037752934732 0.0048535619862 0.0062561356463
          0.0063465391286 0.004966523964 0.0050530782901 0.0049872831441 0.0049818037078 0.0049459771253
          0.0036857263185 0.0062375725247 0.0047987098806 0.0063958684914 0 0
          0 0 0 0 0 0
          0 0 0 0 0
        </DataArray>
        <DataArray type="Float32" Name="uy" format="ascii" RangeMin="-0.75604712963" RangeMax="1.0568655729">
          -0.42576602101 -0.4507574141 -0.46024987102 -0.4211755693 -0.42765665054 -0.46155515313
          -0.45249798894 -0.42559921741 -0.44486555457 -0.43010383844 -0.42106804252 -0.44691544771
          -0.42762079835 -0.43134999275 -0.44510659575 -0.43025103211 -0.44648694992 -0.431296736
          -0.47498929501 -0.44422486424 -0.47604495287 -0.47490286827 -0.47599685192 -0.47576832771
          -0.44429573417 -0.47509250045 -0.41776177287 -0.65753245354 -0.65207272768 -0.65806668997
          -0.61358505487 -0.60784894228 -0.61397957802 -0.64957267046 -0.6054135561 -0.65241229534
          -0.60851997137 -0.64087367058 -0.63882035017 -0.64617884159 -0.59679484367 -0.59479504824
          -0.60197454691 -0.63546705246 -0.59148043394 -0.64636206627 -0.60217267275 -0.64296478033
          -0.59880012274 -0.64562404156 -0.60151076317 -0.63594144583 -0.59184622765 -0.6396086812
          -0.59536373615 -0.64555227757 -0.60145890713 -0.65326738358 -0.60913360119 -0.68576860428
          -0.6801378727 -0.68630224466 -0.67758387327 -0.68052148819 -0.66871398687 -0.66658884287
          -0.67409014702 -0.66322618723 -0.6743016839 -0.67084288597 -0.67349344492 -0.66372859478
          -0.6674399972 -0.67351084948 -0.68135511875 -0.69691598415 -0.69123315811 -0.69743311405
          -0.68868839741 -0.69165670872 -0.67974805832 -0.67763191462 -0.68514382839 -0.67421966791
          -0.6853453517 -0.68189609051 -0.68456691504 -0.67471218109 -0.67845892906 -0.68459355831
          -0.69245350361 -0.69140970707 -0.68578851223 -0.69189578295 -0.68324768543 -0.6862501502
          -0.67438423634 -0.67231225967 -0.67976808548 -0.66888999939 -0.67996060848 -0.67652529478
          -0.67922836542 -0.66938620806 -0.67314010859 -0.67925298214 -0.68701374531 -0.66987782717
          -0.66481369734 -0.67034614086 -0.66253238916 -0.66520637274 -0.65454536676 -0.65263068676
          -0.65936648846 -0.64961344004 -0.65957254171 -0.65649056435 -0.65885221958 -0.65010219812
          -0.6534923315 -0.6589435935 -0.6659424901 -0.6346231699 -0.63011103868 -0.63505202532
          -0.62806242704 -0.63042593002 -0.62098747492 -0.61927437782 -0.62526023388 -0.61660861969
          -0.62544101477 -0.62267071009 -0.62477886677 -0.61701869965 -0.61994898319 -0.62480038404
          -0.63107556105 -0.5860927701 -0.58202373981 -0.58641666174 -0.58022922277 -0.58229744434
          -0.57396888733 -0.5724235177 -0.57769912481 -0.57014471292 -0.57790106535 -0.57544207573
          -0.57719963789 -0.57045930624 -0.57297992706 -0.5772459507 -0.58278930187 -0.52308994532
          -0.51970028877 -0.52332526445 -0.51819837093 -0.51984924078 -0.51317512989 -0.51183903217
          -0.51611870527 -0.51017826796 -0.51631206274 -0.51429718733 -0.51556921005 -0.51042979956
          -0.5122513175 -0.51561588049 -0.52021360397 -0.44495713711 -0.44231593609 -0.44512343407
          -0.44115379453 -0.44232770801 -0.43746414781 -0.43633103371 -0.43954029679 -0.43532004952
          -0.43976730108 -0.43825006485 -0.43895444274 -0.43548738956 -0.43666347861 -0.4390437603
          -0.44255000353 -0.35147386789 -0.34921458364 -0.35155668855 -0.34825375676 -0.34921360016
          -0.34519442916 -0.34421047568 -0.34685391188 -0.34349107742 -0.34709280729 -0.34581542015
          -0.34625771642 -0.34357073903 -0.3444378078 -0.34639266133 -0.34929072857 -0.24246932566
          -0.24048168957 -0.24252152443 -0.23961114883 -0.24045605958 -0.23697866499 -0.23614864051
          -0.23842598498 -0.23553073406 -0.23861466348 -0.23748657107 -0.23790514469 -0.2355787605
          -0.23624837399 -0.23793412745 -0.24054843187 -0.1189051792 -0.11736157537 -0.11897651851
          -0.11671596766 -0.11734298617 -0.11474862695 -0.11405935884 -0.11577171832 -0.11366420984
          -0.11595573276 -0.1151355207 -0.11533532292 -0.11371292174 -0.11421480775 -0.11543746293
          -0.11737065017 0.016742315143 0.017801616341 0.016649948433 0.018273063004 0.017886413261
          0.019612809643 0.020137920976 0.018913635984 0.020354893059 0.01878271997 0.01933679916
          0.01925650984 0.020289387554 0.019979117438 0.019206080586 0.017804184929 0.16160738468
          0.16224817932 0.16152977943 0.16258335114 0.16237488389 0.16338056326 0.16373556852
          0.1629588902 0.16382583976 0.16287340224 0.16323338449 0.16317342222 0.16376776993
          0.1636172533 0.16318072379 0.16222417355 0.31271332502 0.31291121244 0.31263673306
          0.31302815676 0.31303375959 0.31325739622 0.31344491243 0.3131711483 0.31337594986
          0.31311646104 0.31321534514 0.31329274178 0.31331726909 0.3133237958 0.31326985359
          0.31291517615 0.46708354354 0.4668854773 0.46702060103 0.46684765816 0.46700781584
          0.4666185081 0.46665409207 0.46676570177 0.46650317311 0.46673062444 0.4666454494
          0.4668122232 0.46643027663 0.46654170752 0.46677789092 0.46691823006 0.62229090929
          0.62176036835 0.62219828367 0.62163579464 0.62197136879 0.62084257603 0.62075853348
          0.62128829956 0.62039452791 0.62131035328 0.62101095915 0.62125217915 0.62032574415
          0.62068021297 0.62133049965 0.62178981304 0.77693092823 0.77616423368 0.77686816454
          0.77590119839 0.77636235952 0.7747297883 0.77459049225 0.77545368671 0.77402859926
          0.7754483223 0.77499258518 0.77542465925 0.77398818731 0.77451634407 0.77542775869
          0.776296556 0.93107914925 0.93029075861 0.93109315634 0.92996394634 0.9304587841
          0.92876911163 0.92861634493 0.92954152822 0.92799919844 0.92950117588 0.92902308702
          0.92956352234 0.92798763514 0.92855131626 0.92948228121 0.93047869205 -0.51719033718
          -0.5247553587 -0.51750934124 -0.52749168873 -0.52253884077 -0.54087364674 -0.54238444567
          -0.53252148628 -0.54917448759 -0.53260505199 -0.53760874271 -0.53230708838 -0.54935663939
          -0.5425593257 -0.53209096193 -0.52296835184 -0.49862927198 -0.50411897898 -0.52098304033
          -0.47595244646 -0.48998489976 -0.5210210681 -0.50406706333 -0.62042713165 -0.61682456732
          -0.62026131153 -0.67853420973 -0.6757466197 -0.67818593979 -0.61553263664 -0.67478990555
          -0.61750715971 -0.67616081238 -0.61076444387 -0.60977697372 -0.61350351572 -0.67122024298
          -0.67051506042 -0.67318481207 -0.60802346468 -0.66937440634 -0.61365866661 -0.67336082458
          -0.61163681746 -0.6717441678 -0.61304819584 -0.67264443636 -0.60775375366 -0.66894924641
          -0.609341681 -0.66983926296 -0.61300766468 -0.67255932093 -0.61716902256 -0.67561614513
          -0.72090172768 -0.71861767769 -0.72048306465 -0.71788978577 -0.71895712614 -0.71537262201
          -0.7148501277 -0.71667987108 -0.71418750286 -0.71686214209 -0.71559816599 -0.71610891819
          -0.71370792389 -0.71404564381 -0.71599900723 -0.71830236912 -0.74665439129 -0.74489653111
          -0.74617803097 -0.74441605806 -0.74516624212 -0.74283719063 -0.74247670174 -0.74351972342
          -0.74228680134 -0.74372273684 -0.7428304553 -0.74292683601 -0.74175679684 -0.74161845446
          -0.74289101362 -0.74439883232 -0.75604712963 -0.75486975908 -0.7555758357 -0.75460326672
          -0.75498479605 -0.75392830372 -0.75364899635 -0.75401639938 -0.75398445129 -0.75424718857
          -0.7537317276 -0.75338470936 -0.75348353386 -0.75287294388 -0.75340044498 -0.75417762995
          -0.74767774343 -0.74695247412 -0.74718427658 -0.7468944788 -0.74691838026 -0.74704653025
          -0.74681121111 -0.74657148123 -0.7476605773 -0.74684435129 -0.7466520071 -0.74582064152
          -0.74718540907 -0.7460924983 -0.74593263865 -0.746065557 -0.7190027833 -0.71890068054
          -0.71856337786 -0.71904027462 -0.71863412857 -0.72023177147 -0.72006553411 -0.71910727024
          -0.72144770622 -0.71939134598 -0.71959626675 -0.71832346916 -0.72099840641 -0.71941155195
          -0.71841681004 -0.71785497665 -0.66797226667 -0.66885316372 -0.66757589579 -0.66933500767
          -0.66831892729 -0.67202103138 -0.6720533371 -0.67001473904 -0.67408967018 -0.67028409243
          -0.67103534937 -0.6692494154 -0.67367184162 -0.67142921686 -0.66928970814 -0.66764616966
          -0.59511721134 -0.59710794687 -0.59479278326 -0.5979834795 -0.59630054235 -0.60238432884
          -0.60269963741 -0.59932976961 -0.60548174381 -0.5995875597 -0.60103350878 -0.59864974022
          -0.60512024164 -0.60214447975 -0.59868496656 -0.59575212002 -0.50330364704 -0.50639116764
          -0.50304400921 -0.50763452053 -0.50531995296 -0.51366996765 -0.51423996687 -0.50969237089
          -0.5177244544 -0.50987786055 -0.51195400953 -0.50906616449 -0.51741695404 -0.51376259327
          -0.50902819633 -0.50488966703 -0.3942707479 -0.39832982421 -0.39402338862 -0.39996632934
          -0.3971003592 -0.40744885802 -0.40825656056 -0.40257176757 -0.4123917222 -0.40278270841
          -0.40544006228 -0.40198725462 -0.4121080339 -0.4078540206 -0.40202063322 -0.39665073156
          -0.269359231 -0.27428933978 -0.26912635565 -0.27625265718 -0.27289125323 -0.28508776426
          -0.2861455977 -0.2794033587 -0.29083481431 -0.27957418561 -0.28277420998 -0.2789106667
          -0.29056540132 -0.28574296832 -0.27893874049 -0.2724917531 -0.13084103167 -0.13658331335
          -0.13060246408 -0.13888381422 -0.13506898284 -0.14898093045 -0.15027843416 -0.14250959456
          -0.15546327829 -0.14269371331 -0.14639014006 -0.14211726189 -0.15520720184 -0.1498914361
          -0.14215962589 -0.13464029133 0.019249241799 0.012765890919 0.019517190754 0.010139700025
          0.014365958981 -0.0010778638534 -0.0025875382125 0.0060724834912 -0.0082683321089 0.0059294146486
          0.0017395569012 0.0064536347054 -0.0080292606726 -0.0022501975764 0.0063420506194 0.014844086021
          0.17868544161 0.17159946263 0.17895700037 0.1687566936 0.17328070104 0.15663482249
          0.1549243927 0.16429778934 0.14891545475 0.16418704391 0.15966232121 0.16460241377
          0.14918164909 0.15533922613 0.16453331709 0.17376568913 0.34596455097 0.33840897679
          0.34620752931 0.3353895843 0.34018221498 0.32262936234 0.32080113888 0.33067786694
          0.31454402208 0.33055791259 0.32577654719 0.33091804385 0.31476911902 0.32114830613
          0.33085677028 0.34061789513 0.51980990171 0.5119253397 0.51997351646 0.50881117582
          0.51377230883 0.49574193358 0.49387803674 0.50394594669 0.4875356555 0.50386035442
          0.49890124798 0.50410115719 0.48765429854 0.49405241013 0.50401502848 0.51406306028
          0.6977750659 0.68970555067 0.69785684347 0.68658536673 0.69159722328 0.67334634066
          0.67140567303 0.68155950308 0.6650942564 0.6815546155 0.67652088404 0.68161946535
          0.66517567635 0.67154419422 0.68163108826 0.69172948599 0.87704479694 0.8688352108
          0.87707602978 0.86571127176 0.87078088522 0.85242307186 0.85048919916 0.86063015461
          0.8442196846 0.86062711477 0.85557335615 0.8606428504 0.84424740076 0.8505256176
          0.86065816879 0.87081813812 1.0568598509 1.048576355 1.0568655729 1.0453904867
          1.0505188704 1.0320146084 1.0300670862 1.0403014421 1.0237526894 1.0402773619
          1.035161972 1.0403105021 1.0237535238 1.0300730467 1.0402830839 1.0505558252
          -0.50989151001 -0.52068758011 -0.50971347094 -0.52499526739 -0.51819974184 -0.54353958368
          -0.54606574774 -0.53187650442 -0.55517613888 -0.53198683262 -0.53903985023 -0.5316516161
          -0.55501967669 -0.54587340355 -0.5317915082 -0.51777142286 -0.49861171842 -0.50438117981
          -0.52205884457 -0.47501283884 -0.48966228962 -0.52197426558 -0.50428825617 -0.30860424042
          -0.3082793653 -0.30775237083 -0.30729007721 -0.30814924836 -0.3087079227 -0.30814784765
          -0.30725842714 -0.30818217993 -0.30777549744 -0.30878090858 -0.30840870738 -0.30878686905
          -0.20262371004 -0.20267727971 -0.20227751136 -0.20142036676 -0.20220014453 -0.20239140093
          -0.202134341 -0.20123778284 -0.20225448906 -0.20198655128 -0.20311553776 -0.20280653238
          -0.20265524089 -0.11369208992 -0.11431702226 -0.11417130381 -0.11314767599 -0.11350379139
          -0.1129861176 -0.11339388788 -0.11282662302 -0.11359487474 -0.11372528225 -0.11449189484
          -0.1145761013 -0.11345451325 -0.049352265894 -0.050191700459 -0.050139341503 -0.048966284841
          -0.049276363105 -0.048483245075 -0.049133379012 -0.048536602408 -0.049339883029 -0.049498531967
          -0.050286952406 -0.050364226103 -0.049016475677 -0.01228532847 -0.013446304016 -0.013321504928
          -0.011679410934 -0.012079073116 -0.011073583737 -0.011825771071 -0.011049160734 -0.012098147534
          -0.012285233475 -0.013384223916 -0.013506144285 -0.011724361219 0 0
          0 0 0 0 0 0
          0 0 0 0 0
        </DataArray>
        <DataArray type="Float32" Name="uz" format="ascii" RangeMin="-0.15824531019" RangeMax="0.16985490918">
          0.0025657801889 0.023849494755 -0.006641631946 -0.020849352702 -0.037059269845 -0.040605839342
          -0.012803608552 0.032103348523 0.062856577337 0.048463173211 0.01588119939 0.024359343573
          -0.0078212674707 0.023556957021 -0.030578030273 -0.028830498457 -0.067064158618 -0.05321707204
          0.039068307728 0.044809110463 0.0071205128916 0.065233066678 0.032613515854 -0.069020301104
          -0.049894064665 -0.039014939219 -0.0025056458544 -0.084784783423 -0.069550096989 -0.072292380035
          -0.092243507504 -0.070678696036 -0.074646487832 -0.078606545925 -0.083499126136 -0.09042942524
          -0.10041221976 -0.057866461575 -0.043236322701 -0.056739494205 -0.054102484137 -0.032975874841
          -0.052569314837 -0.048846073449 -0.040949922055 -0.06681804359 -0.066866517067 -0.071374572814
          -0.0734654814 -0.046612855047 -0.03809049353 -0.061326019466 -0.059189863503 -0.075912065804
          -0.080190591514 -0.087054051459 -0.09578525275 -0.057722739875 -0.054004631937 -0.076210074127
          -0.068123720586 -0.069453388453 -0.073088273406 -0.079396165907 -0.062144096941 -0.054259713739
          -0.061351694167 -0.057441115379 -0.06682497263 -0.069412216544 -0.055883888155 -0.06423523277
          -0.072011694312 -0.077795222402 -0.061681870371 -0.067598879337 -0.066708154976 -0.066595204175
          -0.067575886846 -0.068284086883 -0.066440798342 -0.065367303789 -0.066008709371 -0.066075541079
          -0.066822975874 -0.067416146398 -0.065225087106 -0.06707085669 -0.067983925343 -0.068446286023
          -0.065683633089 -0.059539079666 -0.065480522811 -0.063980512321 -0.062462676316 -0.057895611972
          -0.070661209524 -0.076055288315 -0.070549234748 -0.074442535639 -0.066959895194 -0.065661333501
          -0.074199102819 -0.069958642125 -0.064355678856 -0.059755243361 -0.069575734437 -0.05211128667
          -0.064426742494 -0.061570927501 -0.057837426662 -0.048399951309 -0.074783265591 -0.086071819067
          -0.074897654355 -0.082365609705 -0.06724011153 -0.064245715737 -0.082583025098 -0.072886414826
          -0.061248712242 -0.051900483668 -0.073213361204 -0.045096822083 -0.063420467079 -0.059308506548
          -0.053449716419 -0.039409905672 -0.078609615564 -0.095455273986 -0.078960962594 -0.089792914689
          -0.067463137209 -0.062834382057 -0.090436838567 -0.075576208532 -0.05826638639 -0.044435992837
          -0.076635226607 -0.038764964789 -0.062717072666 -0.057723473758 -0.049198519439 -0.030780363828
          -0.081964850426 -0.1043945998 -0.082970485091 -0.096422426403 -0.067594960332 -0.061097774655
          -0.098315909505 -0.077427871525 -0.054688550532 -0.036856479943 -0.080494612455 -0.033421095461
          -0.062580108643 -0.057392597198 -0.045107003301 -0.022498754784 -0.084822066128 -0.11290186644
          -0.087120905519 -0.1020078063 -0.067694105208 -0.058846473694 -0.10652330518 -0.077993541956
          -0.050064068288 -0.028843721375 -0.085316799581 -0.028820075095 -0.063061535358 -0.058206956834
          -0.041124109179 -0.01434247382 -0.087381340563 -0.12139648199 -0.09164211899 -0.10692922771
          -0.067866049707 -0.056146942079 -0.11541970819 -0.077530637383 -0.044450554997 -0.02031417191
          -0.091288730502 -0.024910790846 -0.063936144114 -0.059825707227 -0.037256997079 -0.0064399228431
          -0.089583985507 -0.12966668606 -0.096288569272 -0.11118959635 -0.068025901914 -0.053074419498
          -0.12459834665 -0.07621062547 -0.038111709058 -0.011474754661 -0.097904145718 -0.021698825061
          -0.065003119409 -0.061842668802 -0.03374632448 0.00072609103518 -0.091390863061 -0.13708294928
          -0.10064543039 -0.11464739591 -0.068165801466 -0.050019726157 -0.1331756264 -0.07444857806
          -0.031853999943 -0.0031509178225 -0.10441680253 -0.018880732358 -0.065944992006 -0.063619621098
          -0.030690038577 0.0069725946523 -0.092975392938 -0.14356005192 -0.10446565598 -0.11767458916
          -0.068297319114 -0.047396369278 -0.14071452618 -0.072955735028 -0.026450619102 0.0040710382164