<VTKFile type="UnstructuredGrid" version="1.0" byte_order="LittleEndian" header_type="UInt64">
  <UnstructuredGrid>
    <Piece NumberOfPoints="791" NumberOfCells="973">
      <PointData>
        <DataArray type="Float32" Name="ux" format="ascii" RangeMin="-1.2594121695" RangeMax="1.2594330311">
          -0.00080207525752 -0.0005696893204 -0.00042371149175 4.8819465519e-06 0.00081304571358 0.00043525162619
          0.00057757948525 -0.00080042646732 -0.00083441892639 -0.00033809468732 3.541624892e-06 0.0008381123771
          0.00080851040548 0.00034479409805 -0.0008646021015 -0.00033030216582 0.00087967002764 0.00034270330798
          -6.4347448642e-05 3.6206631648e-06 7.2023496614e-05 -9.9413431599e-05 0.00010299265705 0.00014079730317
          6.7960345405e-06 -0.00012540697935 4.1478574531e-06 -0.044794805348 -0.044534742832 -0.044811274856
          -0.020134512335 -0.02008718811 -0.020138833672 -0.044414963573 -0.020016377792 -0.044395681471
          -0.019859673455 -0.044490203261 -0.044348977506 -0.044349551201 -0.0202407334 -0.020165141672
          -0.02002377063 -0.044703494757 -0.020597172901 -0.044424332678 -0.020098945126 -0.044384688139
          -0.020116042346 -0.044146716595 -0.019809896126 -0.044691815972 -0.020569840446 -0.044319242239
          -0.020132318139 -0.0441275388 -0.019791519269 -0.044423572719 -0.019891887903 -0.076846010983
          -0.076652616262 -0.076858751476 -0.076551452279 -0.076499536633 -0.076657496393 -0.076542958617
          -0.076509326696 -0.076876968145 -0.076577752829 -0.076555296779 -0.076321817935 -0.076862148941
          -0.076514028013 -0.076301172376 -0.076528593898 -0.11616457254 -0.11597955227 -0.1161782369
          -0.11588642001 -0.11584658921 -0.11598023772 -0.11587275565 -0.11584769189 -0.1161756292
          -0.11590915918 -0.11588653922 -0.11567810178 -0.11616244912 -0.11584403366 -0.11565699428
          -0.11587487161 -0.16202446818 -0.16185964644 -0.16203728318 -0.16177396476 -0.16173553467
          -0.16185881197 -0.16176356375 -0.1617397517 -0.16203708947 -0.16179475188 -0.16177345812
          -0.16158676147 -0.16202390194 -0.16173534095 -0.16156466305 -0.16176353395 -0.21381542087
          -0.21366788447 -0.21382799745 -0.21359044313 -0.21355575323 -0.21366789937 -0.21358320117
          -0.21356140077 -0.21382766962 -0.21360993385 -0.21359038353 -0.21342502534 -0.21381498873
          -0.2135553658 -0.21340216696 -0.21358332038 -0.27092373371 -0.27079370618 -0.27093589306
          -0.27072396874 -0.27069240808 -0.27079349756 -0.2707194984 -0.27069965005 -0.27093559504
          -0.27074187994 -0.27072378993 -0.27057948709 -0.27092328668 -0.27069208026 -0.27055582404
          -0.27071961761 -0.33274936676 -0.33263623714 -0.33276116848 -0.3325740695 -0.33254569769
          -0.33263608813 -0.33257240057 -0.33255445957 -0.33276087046 -0.33259055018 -0.33257395029
          -0.33245003223 -0.33274894953 -0.33254536986 -0.33242559433 -0.33257251978 -0.39870911837
          -0.39861232042 -0.39872059226 -0.39855748415 -0.39853212237 -0.39861217141 -0.39855849743
          -0.39854237437 -0.39872032404 -0.39857253432 -0.39855736494 -0.39845317602 -0.39870876074
          -0.39853182435 -0.39842793345 -0.39855861664 -0.46824020147 -0.46815904975 -0.46825137734
          -0.46811115742 -0.46808868647 -0.46815890074 -0.4681147933 -0.46810036898 -0.46825113893
          -0.46812486649 -0.46811106801 -0.46802574396 -0.46823987365 -0.46808844805 -0.46799975634
          -0.46811488271 -0.54080426693 -0.54073792696 -0.54081511497 -0.54069662094 -0.5406768918
          -0.54073780775 -0.54070270061 -0.54068994522 -0.54081493616 -0.54070907831 -0.54069650173
          -0.54062908888 -0.54080396891 -0.54067665339 -0.540602386 -0.54070281982 -0.61589169502
          -0.61583912373 -0.61590224504 -0.61580401659 -0.61578685045 -0.61583900452 -0.61581242085
          -0.61580115557 -0.61590206623 -0.61581528187 -0.61580395699 -0.61575317383 -0.6158914566
          -0.61578667164 -0.6157258153 -0.61581248045 -0.69302594662 -0.69298613071 -0.69303625822
          -0.69295668602 -0.69294190407 -0.69298607111 -0.69296723604 -0.69295740128 -0.69303607941
          -0.69296687841 -0.69295662642 -0.69292128086 -0.6930257082 -0.69294172525 -0.69289326668
          -0.69296729565 -0.77176839113 -0.77174001932 -0.77177846432 -0.77171576023 -0.77170306444
          -0.77173995972 -0.771728158 -0.77171957493 -0.7717782855 -0.77172487974 -0.77171570063
          -0.77169418335 -0.77176815271 -0.77170288563 -0.77166563272 -0.7717282176 -0.85172271729
          -0.85170447826 -0.85173255205 -0.85168468952 -0.85167390108 -0.85170441866 -0.85169881582
          -0.85169136524 -0.85173243284 -0.85169297457 -0.85168468952 -0.8516753912 -0.85172253847
          -0.85167378187 -0.85164630413 -0.85169887543 -0.93254005909 -0.93253046274 -0.93254977465
          -0.9325145483 -0.93250530958 -0.93253040314 -0.93253004551 -0.9325235486 -0.93254965544
          -0.93252205849 -0.9325144887 -0.93251556158 -0.93253993988 -0.93250519037 -0.93248611689
          -0.93253010511 -1.0139237642 -1.0139211416 -1.013933301 -1.013908267 -1.01390028
          -1.0139210224 -1.0139249563 -1.0139192343 -1.0139331818 -1.0139151812 -1.013908267
          -1.0139176846 -1.013923645 -1.01390028 -1.0138878822 -1.0139249563 -1.095634222
          -1.0956367254 -1.0956436396 -1.095626235 -1.0956192017 -1.0956367254 -1.0956436396
          -1.0956385136 -1.0956436396 -1.0956326723 -1.0956261158 -1.0956418514 -1.095634222
          -1.0956192017 -1.0956118107 -1.0956437588 -1.1774940491 -1.1774997711 -1.1775034666
          -1.1774907112 -1.1774842739 -1.1774997711 -1.1775087118 -1.1775039434 -1.1775034666
          -1.1774969101 -1.1774907112 -1.1775101423 -1.1774940491 -1.1774842739 -1.1774799824
          -1.1775087118 -1.2593932152 -1.2594000101 -1.2594026327 -1.2593913078 -1.2593851089
          -1.2594000101 -1.2594095469 -1.2594048977 -1.2594026327 -1.2593975067 -1.2593913078
          -1.2594121695 -1.2593932152 -1.2593851089 -1.2593818903 -1.2594095469 0.00064798694802
          -0.0014870685991 0.00064939330332 -0.002225439297 -0.00081547989976 -0.0056967041455 -0.0061375489458
          -0.0035115939099 -0.0080447699875 -0.0035573444329 -0.0048269564286 -0.0033365453128 -0.008005136624
          -0.0061064376496 -0.0033270851709 -0.00083887402434 -0.00072114763316 -0.00096346257487 -0.0017338376492
          2.1166131773e-05 -0.00041152548511 -0.0016961488873 -0.00096151605248 0.020145358518 0.020095122978
          0.020145818591 0.044805731624 0.044542655349 0.044818196446 0.020027862862 0.044426549226
          0.019873833284 0.0444098562 0.020248703659 0.020168401301 0.020029420033 0.044498052448
          0.044352501631 0.044355142862 0.020603984594 0.044710330665 0.02010791935 0.044433232397
          0.020127618685 0.044396303594 0.019812006503 0.044149052352 0.020580908284 0.044702813029
          0.020146805793 0.044333543628 0.019807120785 0.044143028557 0.019895551726 0.044427234679
          0.076857112348 0.076660722494 0.076865881681 0.076563186944 0.076513886452 0.076665580273
          0.076546676457 0.07651515305 0.076884001493 0.076586857438 0.076567068696 0.076324343681
          0.076873332262 0.076528519392 0.076316848397 0.076532445848 0.11617600918 0.11598800123
          0.11618570238 0.1158984974 0.11586126685 0.11598865688 0.11587683856 0.11585386097
          0.11618301272 0.11591859907 0.11589865386 0.11568098515 0.11617396027 0.11585884541
          0.11567298323 0.11587908119 0.16203637421 0.16186855733 0.1620452255 0.16178649664
          0.16175067425 0.16186770797 0.16176813841 0.16174639761 0.16204495728 0.16180466115
          0.1617860347 0.16159014404 0.16203586757 0.16175058484 0.16158108413 0.16176822782
          0.21382790804 0.21367739141 0.21383653581 0.21360355616 0.21357145905 0.21367739141
          0.21358840168 0.21356867254 0.21383614838 0.21362045407 0.21360352635 0.21342904866
          0.21382753551 0.21357117593 0.21341916919 0.21358864009 0.27093690634 0.27080392838
          0.27094513178 0.27073779702 0.27070879936 0.27080371976 0.27072545886 0.27070763707
          0.27094480395 0.27075308561 0.27073764801 0.27058422565 0.27093651891 0.27070856094
          0.27057346702 0.27072566748 0.33276337385 0.33264729381 0.33277127147 0.33258873224
          0.33256292343 0.33264714479 0.3325792253 0.33256331086 0.33277094364 0.33260259032
          0.33258861303 0.33245566487 0.33276304603 0.33256268501 0.33244407177 0.33257943392
          0.39872413874 0.39862439036 0.39873167872 0.39857310057 0.39855033159 0.39862424135
          0.39856633544 0.39855220914 0.3987313807 0.39858555794 0.39857301116 0.39845979214
          0.39872381091 0.39855012298 0.39844742417 0.39856651425 0.46825632453 0.46817219257
          0.46826353669 0.46812787652 0.46810799837 0.46817204356 0.46812367439 0.46811130643
          0.46826326847 0.46813899279 0.46812778711 0.46803343296 0.46825602651 0.46810781956
          0.46802031994 0.46812385321 0.54082155228 0.54075217247 0.54082846642 0.54071450233
          0.5406973362 0.54075205326 0.5407127738 0.54070198536 0.54082816839 0.5407243371
          0.54071438313 0.54063791037 0.54082125425 0.54069715738 0.54062408209 0.54071289301
          0.61591017246 0.61585462093 0.61591678858 0.61582309008 0.61580848694 0.61585450172
          0.61582368612 0.6158144474 0.61591655016 0.61583173275 0.61582303047 0.61576324701
          0.61590993404 0.61580836773 0.61574870348 0.61582380533 0.69304573536 0.69300293922
          0.69305205345 0.69297707081 0.69296485186 0.69300282001 0.69297975302 0.69297194481
          0.69305187464 0.6929846406 0.6929770112 0.69293260574 0.69304549694 0.69296473265
          0.69291746616 0.69297987223 0.77178949118 0.77175819874 0.77179563046 0.77173745632
          0.77172738314 0.77175807953 0.77174204588 0.77173548937 0.77179545164 0.77174401283
          0.77173745632 0.77170687914 0.77178931236 0.77172726393 0.77169120312 0.77174216509
          0.85174524784 0.85172402859 0.8517511487 0.85170787573 0.85169965029 0.85172396898
          0.85171413422 0.85170871019 0.85175096989 0.85171353817 0.85170781612 0.85168945789
          0.85174506903 0.85169953108 0.85167330503 0.85171419382 0.93256402016 0.93255144358
          0.9325697422 0.93253910542 0.9325324297 0.93255138397 0.93254673481 0.93254226446
          0.93256962299 0.932543993 0.93253904581 0.93253105879 0.93256390095 0.93253237009
          0.9325144887 0.93254685402 1.0139490366 1.0139434338 1.0139546394 1.0139342546
          1.0139288902 1.0139434338 1.0139430761 1.0139393806 1.0139545202 1.0139385462
          1.0139341354 1.0139346123 1.0139490366 1.013928771 1.0139176846 1.0139430761
          1.0956609249 1.0956604481 1.0956664085 1.0956535339 1.0956491232 1.0956604481
          1.0956631899 1.0956600904 1.0956664085 1.0956573486 1.0956535339 1.0956600904
          1.0956609249 1.0956491232 1.0956429243 1.0956631899 1.1775220633 1.1775248051
          1.1775275469 1.1775193214 1.1775155067 1.1775248051 1.1775295734 1.1775267124
          1.1775274277 1.1775228977 1.1775193214 1.1775298119 1.1775220633 1.1775155067
          1.1775124073 1.1775295734 1.2594225407 1.2594263554 1.2594279051 1.2594213486
          1.2594176531 1.2594263554 1.2594317198 1.2594290972 1.2594279051 1.2594248056
          1.2594213486 1.2594330311 1.2594225407 1.2594176531 1.2594157457 1.2594317198
          -0.000636079174 0.0014950559707 -0.00064259947976 0.0022378819995 0.00083087669918 0.0057047093287
          0.0061419373378 0.0035168405157 0.0080519160256 0.0035662858281 0.0048391930759 0.0033387977164
          0.0080165388063 0.006121034734 0.003343464341 0.00084167567547 0.00072939967504 0.00096565345302
          0.0017401725054 -1.1279210412e-05 0.00042328445124 0.0017071678303 0.00097678636666 -6.2768049247e-05
          1.75126263e-06 6.6961110861e-05 0.00016527972184 2.6951279324e-06 -0.00015988046653 3.1417575883e-06
          0.0001667906763 3.6185565477e-06 6.816212408e-05 -6.0062033299e-05 4.2852552724e-06 -0.00016007812519
          8.3696741058e-06 9.4400417083e-07 -6.1596738306e-06 -2.355624747e-05 1.5023883861e-06 2.6787516617e-05
          1.8849870003e-06 -2.2787613489e-05 2.2485689897e-06 -3.8708435568e-06 9.2208883871e-06 2.8527899758e-06
          2.726243838e-05 5.6948329075e-07 3.6715755414e-07 4.4472267291e-07 4.3470199671e-06 8.0162891436e-07
          -2.6295015232e-06 1.0667646393e-06 4.9084228522e-06 1.3357625903e-06 1.738150786e-06 1.5116260101e-06
          1.7541344732e-06 -2.3462271201e-06 -4.7694152272e-07 3.6123694258e-08 7.2196525025e-07 6.2193851136e-07
          3.1293035363e-07 9.5629800967e-08 4.8739650538e-07 1.0703892031e-06 6.5806733573e-07 1.7716871525e-06
          -7.6233838797e-08 9.2974147492e-07 2.0486027097e-07 -9.0055920055e-08 -9.4417060836e-08 -7.6245658676e-09
          5.2548665508e-07 4.383580432e-08 -3.7352430127e-07 1.3043820957e-07 8.4896214503e-07 2.1523551652e-07
          6.9065248454e-07 -7.5034350289e-08 3.4531566939e-07 -4.2355276264e-07 0 0
          0 0 0 0 0 0
          0 0 0 0 0
        </DataArray>
        <DataArray type="Float32" Name="uy" format="ascii" RangeMin="-0.00034088635584" RangeMax="0.00049601786304">
          0.00015817997337 5.7192548411e-05 0.00010206828301 0.00019382762548 0.00016085202515 0.00010679691331
          5.7397104683e-05 -4.1621892706e-06 -0.00012061692541 -0.000107775777 -3.1882333133e-05 -0.00011981731222
          -1.9365302251e-06 -0.0001078402056 0.00030078794225 0.00026272714604 0.00030585349305 0.00026600176352
          0.00015505337797 -0.00012212127331 0.00016432978737 0.0001843215141 0.0001917892514 -2.3856500775e-05
          0.00028486255906 -3.6728179111e-05 8.3301791165e-05 0.00031914544525 6.9277615694e-05 -6.7191343987e-05
          0.00030609613168 7.558993093e-05 -4.9367474276e-05 0.00020285038045 0.00018843304133 0.00043871300295
          0.00041939353105 0.000162054057 0.00042518856935 0.0001164956193 0.00016806802887 0.00044411548879
          0.00013708289771 0.0003019834694 0.00031879136804 0.00011434844055 0.0001148863812 2.077640238e-05
          6.8199951784e-06 0.00012022047304 0.00012983808119 -9.7787473351e-05 -0.00010715078679 -0.00022252547205
          -0.00024219141051 0.00010960306827 9.4169627118e-05 -0.00018391750928 -0.00016400907771 0.00030867967871
          7.344239566e-05 -5.2489758673e-05 0.00020112580387 0.00042113987729 0.00015738530783 0.0003905131598
          0.00011513079517 0.00028139766073 0.00011601535516 3.3008040191e-05 0.00011387337872 -7.339813601e-05
          -0.00018365170399 0.0001179346873 -0.00016376069107 0.00029501962126 8.2367478171e-05 -3.1097206374e-05
          0.00019649864407 0.00039606605424 0.00015729357256 0.00037185352994 0.00011969239131 0.00027091271477
          0.00011978658586 4.3118681788e-05 0.00011998027185 -5.6067448895e-05 -0.00015689797874 0.00011993801309
          -0.00013169247541 0.00028583972016 9.2105015938e-05 -1.0032946193e-05 0.00019556627376 0.00037695394713
          0.000158750845 0.00035250827204 0.00012544814672 0.00026073158369 0.00012549087114 5.5576416344e-05
          0.00012530747335 -3.4726705053e-05 -0.00012546178186 0.00012579921167 -0.000101943755 0.00027808078448
          0.00010372648831 1.2867757505e-05 0.00019615408382 0.00035920570372 0.00016196315119 0.00033553742105
          0.0001327830978 0.00025268539321 0.00013288657647 6.9820896897e-05 0.0001327515638 -1.2272991626e-05
          -9.3036622275e-05 0.00013316961122 -7.0032379881e-05 0.00027224366204 0.00011670794629 3.6896533857e-05
          0.00019844148483 0.00034362144652 0.00016679894179 0.00032061905949 0.00014171931252 0.00024649454281
          0.0001417966414 8.5319923528e-05 0.00014166483015 1.1396833543e-05 -5.9660284023e-05 0.00014205853222
          -3.7301226257e-05 0.00026814860757 0.00013093597954 6.1860439018e-05 0.00020224311447 0.0003300421813
          0.00017307556118 0.00030768846045 0.00015196703316 0.00024204558576 0.00015204312513 0.00010200094403
          0.00015191917191 3.5980971006e-05 -2.5620149245e-05 0.00015227899712 -3.8480980038e-06 0.00026574588264
          0.00014620098227 8.7489315774e-05 0.00020745545044 0.00031848644721 0.0001806702785 0.00029674859252
          0.0001634004584 0.000239287765 0.00016346969642 0.00011962714052 0.00016335421242 6.1239021306e-05
          8.7593361968e-06 0.00016368406068 2.9960696338e-05 0.00026497608633 0.00016232990311 0.00011353307491
          0.00021396687953 0.00030896102544 0.00018945620104 0.00028780775028 0.00017585896421 0.00023817068723
          0.00017592350196 0.00013801069872 0.00017581530847 8.6915482825e-05 4.3162977818e-05 0.00017611612566
          6.3829043938e-05 0.00026579809492 0.00017914612545 0.00013973693422 0.0002216778521 0.00030149141094
          0.00019931823772 0.00028088976978 0.00018920117873 0.00023865548428 0.00018925893528 0.00015695598267
          0.00018915995315 0.00011276227451 7.7272423368e-05 0.00018942875613 9.7438321973e-05 0.00026817558683
          0.00019647186855 0.00016584117839 0.00023049100128 0.00029611639911 0.00021013608784 0.00027602113551
          0.00020327544189 0.00024070398649 0.00020332740678 0.00017626644694 0.00020323719946 0.00013851858967
          0.00011075466318 0.00020347602549 0.00013046349341 0.00027209377731 0.00021415068477 0.00019160356896
          0.00024033267982 0.00029289655504 0.00022182076646 0.00027326439158 0.0002179594303 0.00024431422935
          0.00021800627292 0.00019576956402 0.0002179248113 0.00016395485727 0.00014330461272 0.00021813518833
          0.00016259575204 0.00027755173505 0.00023203541059 0.00021678720077 0.00025114000891 0.00029190685018
          0.00023429727298 0.0002727022802 0.00023314313148 0.00024950189982 0.00023318322201 0.00021530280355
          0.00023311161203 0.00018884931342 0.00017461899552 0.00023329064425 0.00019353299285 0.00028453496634
          0.00024996552384 0.00024113734253 0.00026284097112 0.00029321751208 0.00024747828138 0.0002744064841
          0.00024870131165 0.00025627197465 0.00024873579969 0.00023469295411 0.00024867363391 0.00021296741033
          0.00020438415231 0.00024882264552 0.00022295331291 0.00029304879718 0.0002677894372 0.00026441551745
          0.00027537217829 0.00029691224336 0.00026127533056 0.00027845072327 0.00026451511076 0.00026462541427
          0.00026454284671 0.00025376392296 0.00026449133293 0.00023606589821 0.00023227705969 0.00026461103698
          0.00025054591242 0.00030313828029 0.00028539384948 0.00028642130201 0.0002887014125 0.00030311060254
          0.00027562555624 0.0002849312732 0.00028049614048 0.00027457915712 0.00028051732806 0.00027237125323
          0.00028047739761 0.00025791840744 0.0002580009168 0.00028056767769 0.00027603426133 0.00031486782245
          0.00030267433613 0.00030696202884 0.00030282570515 0.00031195904012 0.00029050218291 0.00029399050982
          0.00029657915002 0.00028620290686 0.0002965934691 0.00029038536013 0.00029656547122 0.0002783347154
          0.00028127778205 0.000296625396 0.00029914907645 0.00032827752875 0.00031955106533 0.00032586895395
          0.00031771609792 0.00032356768497 0.00030586525099 0.00030573646654 0.00031270325417 0.00029954340425
          0.00031271012267 0.00030771625461 0.00031269644387 0.00029715170967 0.00030187598895 0.00031272493652
          0.00031966200913 0.00034348818008 0.00033592025284 0.00034291890915 0.00033343295217 0.00033818159136
          0.00032173967338 0.0003203957458 0.00032882820233 0.00031473918352 0.00032883076346 0.00032423305674
          0.00032882537926 0.00031417640275 0.00031948846299 0.00032883600215 0.00033725745743 0.00031715314253
          6.4571882831e-05 -7.2853705205e-05 0.00018550417735 0.00042177349678 0.00016728250193 0.00044686568435
          0.00013061206846 0.0003263647377 0.00010725977336 -2.591657676e-06 0.00011274241842 -0.00012009109196
          -0.00025359215215 9.5218376373e-05 -0.00018514445401 0.00016307225451 0.00049601786304 0.0003415090905
          8.7816668383e-05 -5.8964131313e-05 -0.00015190296108 -0.00033605223871 0.00027664747904 4.9303806009e-05
          -7.8916731582e-05 0.00028488601674 3.8091540773e-05 -0.00010141267558 0.00016315501125 0.00017286503862
          0.00039222047781 0.00040675408673 0.00014789009583 0.00042472075438 0.00011336173338 0.00013715900423
          0.00040096126031 8.8505548774e-05 0.00030194205465 0.00028024511994 9.1353460448e-05 8.6354288214e-05
          -1.4671110875e-05 -5.3252215366e-06 0.00010634164937 9.2074209533e-05 -0.0001240332931 -0.00011953309877
          -0.00026162306312 -0.00024675307213 7.0318492362e-05 8.1573722127e-05 -0.00019116878684 -0.00021588557865
          0.00026789269759 3.5747427319e-05 -9.3294700491e-05 0.00016459908511 0.00038266537013 0.00012594069995
          0.00035977258813 8.0507132225e-05 0.00025312096113 8.1416328612e-05 3.3889497786e-07 7.9211371485e-05
          -0.00010168652079 -0.00021441064018 8.323869406e-05 -0.00020224679611 0.00024594119168 3.6364253901e-05
          -8.0177902419e-05 0.000151668748 0.00034929226968 0.00011752224236 0.00033277602051 7.6773758337e-05
          0.00023429270368 7.6889533375e-05 2.1358698632e-06 7.6998425357e-05 -9.2694972409e-05 -0.00019598328799
          7.696927787e-05 -0.00017847861454 0.00022686985903 3.620492862e-05 -6.90073648e-05 0.0001408335811
          0.0003202878288 0.00010905466479 0.0003035114205 7.2619630373e-05 0.00021416973323 7.2679678851e-05
          4.6744016799e-06 7.2429502325e-05 -8.1296420831e-05 -0.00017447004211 7.2918941441e-05 -0.00015861814609
          0.00020779493207 3.6496163375e-05 -5.7422355894e-05 0.00013008688984 0.00029121802072 0.00010090394062
          0.00027517680428 6.8612862378e-05 0.00019473944849 6.8731256761e-05 7.5640341493e-06 6.8535977334e-05
          -7.0226451498e-05 -0.00015340841492 6.8953253503e-05 -0.00013802803005 0.00018938063295 3.6886940507e-05
          -4.5971970394e-05 0.00011978110706 0.00026305270148 9.3118520454e-05 0.00024763785768 6.494455738e-05
          0.00017590991047 6.503653276e-05 1.0450237824e-05 6.485011545e-05 -5.9195877839e-05 -0.0001326524507
          6.524570199e-05 -0.00011788120173 0.0001715808321 3.7404348404e-05 -3.4713324567e-05 0.00010986998677
          0.00023576819513 8.5665458755e-05 0.0002209781378 6.1474871472e-05 0.00015771777544 6.1564314819e-05
          1.3407046936e-05 6.1392631324e-05 -4.8354486353e-05 -0.00011234084377 6.1753795308e-05 -9.8133074061e-05
          0.00015447675833 3.7968351535e-05 -2.3783921279e-05 0.00010038122127 0.0002095138625 7.8551754996e-05
          0.00019533124578 5.8206729591e-05 0.00014024499978 5.8287390857e-05 1.6328642232e-05 5.8129720856e-05
          -3.7809244532e-05 -9.2665250122e-05 5.8460995206e-05 -7.9019984696e-05 0.00013814623526 3.8538400986e-05
          -1.3299521015e-05 9.1333706223e-05 0.00018443082809 7.1776026743e-05 0.00017082996783 5.5107579101e-05
          0.00012356160732 5.5181448261e-05 1.9152224922e-05 5.5036944104e-05 -2.7697777114e-05 -7.3819413956e-05
          5.5338019592e-05 -6.0706337536e-05 0.00012265855912 3.9043228753e-05 -3.4058903111e-06 8.273342246e-05
          0.00016065397358 6.5320171416e-05 0.00014759553596 5.2136416343e-05 0.00010772380483 5.2203053201e-05
          2.1782580006e-05 5.2071438404e-05 -1.817293014e-05 -5.6025815866e-05 5.2341758419e-05 -4.3405743781e-05
          0.00010806344653 3.9396643842e-05 5.7253628256e-06 7.4575196777e-05 0.00013830984244 5.9162743128e-05
          0.00012575426081 4.9238762585e-05 9.2794442025e-05 4.929845818e-05 2.4119424779e-05 4.9179776397e-05
          -9.3948010544e-06 -3.9517060941e-05 4.9420297728e-05 -2.7351223252e-05 9.4417751825e-05 3.9519047277e-05
          1.3923557162e-05 6.6864071414e-05 0.00011753402941 5.3305229812e-05 0.00010546029807 4.6375953389e-05
          7.8867618868e-05 4.6428795031e-05 2.6078285373e-05 4.6323744755e-05 -1.4961183297e-06 -2.4506249247e-05
          4.6534503781e-05 -1.27734138e-05 8.1806116214e-05 3.9349288272e-05 2.1039377316e-05 5.9622794652e-05
          9.8489217635e-05 4.7748726502e-05 8.6868589278e-05 4.3518084567e-05 6.6029395384e-05 4.3563246436e-05
          2.7577289075e-05 4.3472446123e-05 5.3746803133e-06 -1.1216855455e-05 4.3653690227e-05 1.1036995318e-07
          7.0361609687e-05 3.8855945604e-05 2.6963252822e-05 5.2901028539e-05 8.137763507e-05 4.2508178012e-05
          7.0154477726e-05 4.0656526835e-05 5.4376938351e-05 4.0693586925e-05 2.8546759495e-05 4.0619161155e-05
          1.1071568224e-05 1.3128418175e-07 4.076922778e-05 1.1111753338e-05 6.0213442339e-05 3.8015670725e-05
          3.158069012e-05 4.6766279411e-05 6.6409913416e-05 3.7629069993e-05 5.552251605e-05 3.7801793951e-05
          4.4044874812e-05 3.78318e-05 2.89455038e-05 3.7772399082e-05 1.548614091e-05 9.3506459962e-06
          3.7892205e-05 2.0044744815e-05 5.149264689e-05 3.6806155549e-05 3.4778207919e-05 4.1279839934e-05
          5.379632421e-05 3.3155392885e-05 4.318009087e-05 3.4965320083e-05 3.5170116462e-05 3.4987635445e-05
          2.8731996281e-05 3.4943499486e-05 1.8510485461e-05 1.6252128262e-05 3.5033066524e-05 2.6724039344e-05
          4.4312877435e-05 3.5177501559e-05 3.6409208406e-05 3.6495435779e-05 4.3737454689e-05 2.9120934414e-05
          3.3329870348e-05 3.2139269024e-05 2.7880938433e-05 3.2153715438e-05 2.7836142181e-05 3.2124429708e-05
          2.0013540052e-05 2.0618264898e-05 3.2183284929e-05 3.0930827052e-05 3.8769492676e-05 3.3103020542e-05
          3.6361147068e-05 3.2436346373e-05 3.639685383e-05 2.5536561225e-05 2.6130008337e-05 2.9315022402e-05
          2.2274012736e-05 2.9321803595e-05 2.6218658604e-05 2.9308179364e-05 1.988321128e-05 2.2269385227e-05
          2.9336028092e-05 3.2491720049e-05 3.5031025618e-05 3.0523649912e-05 3.4462318581e-05 2.9204897146e-05
          3.2061820093e-05 2.2464126232e-05 2.1843234208e-05 2.6492578399e-05 1.8523749532e-05 2.6494819394e-05
          2.378807585e-05 2.6490368327e-05 1.7960803234e-05 2.0934894565e-05 2.6499550586e-05 3.1138628401e-05
          0.00029518315569 4.4677399273e-05 -9.4801507657e-05 0.00016752665397 0.00040210381849 0.00015378541138
          0.00043376695248 0.00011561310384 0.00031501115882 9.1609479568e-05 -1.6752019292e-05 9.6863826911e-05
          -0.00013135954214 -0.00026677807909 8.0644000263e-05 -0.00020542925631 0.00015835862723 0.00049029884394
          0.00033906608587 8.1094753114e-05 -6.5951033321e-05 -0.00015455367975 -0.00034088635584 8.5958490672e-05
          8.4762614279e-05 8.3974329755e-05 6.6277483711e-05 6.7161367042e-05 6.8901339546e-05 4.6822955483e-05
          2.7758826036e-05 2.8569013011e-05 1.2730298295e-05 1.3784521798e-05 1.3964579011e-05 3.0168102967e-05
          2.5997958801e-05 2.4816104997e-05 2.4971292078e-05 2.688629138e-05 2.8784863389e-05 2.8669281164e-05
          2.998981472e-05 3.0532726669e-05 3.0791976315e-05 3.3360665839e-05 3.4577769839e-05 3.4725951991e-05
          3.2352778362e-05 1.5594505385e-05 1.5426048776e-05 1.4737027414e-05 1.4520613149e-05 1.5010348761e-05
          1.5857682229e-05 1.5799972971e-05 1.577715193e-05 1.6746140318e-05 1.6371110178e-05 1.7138649127e-05
          1.6663092538e-05 1.7078071323e-05 6.8824697337e-06 6.5023541538e-06 6.3467723521e-06 6.2638328018e-06
          6.7335431595e-06 7.1243971433e-06 6.7108230724e-06 6.1722212195e-06 6.7298733484e-06 6.7690907599e-06
          7.28629675e-06 7.2776215347e-06 7.0166406658e-06 1.3076823961e-06 1.155162181e-06 1.0268706774e-06
          1.0602207112e-06 1.3488682953e-06 1.4908403045e-06 1.5610717128e-06 1.5293776414e-06 1.8491949731e-06
          2.1113444291e-06 2.3430741294e-06 2.4222752018e-06 1.9314434212e-06 0 0
          0 0 0 0 0 0
          0 0 0 0 0
        </DataArray>
        <DataArray type="Float32" Name="uz" format="ascii" RangeMin="-0.03040696308" RangeMax="0.057226493955">
          -0.00018121354515 -0.0001516189659 -0.00023001745285 -0.00012125416106 -0.00018352651387 -0.00023126880114
          -0.00015504397743 -0.00021039407875 -0.0002449224412 -0.00022642748081 -0.00011874956544 -0.00024136756838
          -0.00021237434703 -0.00022517330945 -0.00027638606844 -0.00020034538466 -0.00027833232889 -0.00019970916037
          -0.00034531010897 -0.00035453765304 -0.00033623736817 -0.00052805675659 -0.00052329141181 -0.00050699204439
          -0.00029924177215 -0.00050305767218 -7.5502910477e-05 0.028472665697 0.020903097466 0.028480703011
          0.02438236028 0.018879121169 0.024373894557 0.018029363826 0.016763964668 0.022714709863
          0.020111795515 0.0058531225659 0.0040619089268 0.01337999478 0.0080660525709 0.0067897564732
          0.013387538493 -0.0017177443951 0.0028603340033 0.01337898057 0.013411668129 0.0087297596037
          0.010075442493 0.013388724066 0.013355263509 -0.0017104452709 0.0028518289328 0.0040596011095
          0.0067932181992 0.013387381099 0.013351600617 0.022708585486 0.020118042827 0.032500188798
          0.022947153077 0.032500755042 0.019302723929 0.025209970772 0.0038526717108 0.0015879123239
          0.013401469216 -0.0057163801976 0.013401187956 0.0075012636371 0.013399855234 -0.0057123648003
          0.001588050276 0.013403561898 0.025206560269 0.036181360483 0.024778179824 0.036183863878
          0.020432367921 0.027481969446 0.0020166509785 -0.00068294355879 0.013396146707 -0.0093851946294
          0.013397937641 0.0063650426455 0.013394651003 -0.009380178526 -0.00068068457767 0.013399871066
          0.027475195006 0.039520513266 0.026450591162 0.039521455765 0.021467471495 0.029547762126
          0.00034818405402 -0.0027461035643 0.013398030773 -0.012724737637 0.013399729505 0.005335288588
          0.013396288268 -0.012718991376 -0.002742277924 0.013403645717 0.029539775103 0.042530845851