<VTKFile type="UnstructuredGrid" version="1.0" byte_order="LittleEndian" header_type="UInt64">
  <UnstructuredGrid>
    <Piece NumberOfPoints="791" NumberOfCells="973">
      <PointData>
        <DataArray type="Float32" Name="ux" format="ascii" RangeMin="-1.2681933641" RangeMax="0.9905782938">
          0.1037703827 0.12549003959 0.13060046732 0.099047385156 0.10172294825 0.12909585238
          0.12625578046 0.10611458868 0.12234752625 0.11069966853 0.10265056044 0.12642945349
          0.10556488484 0.11106260121 0.11567494273 0.10345507413 0.10857772827 0.10203395039
          0.14765334129 0.1212040633 0.15122120082 0.14959591627 0.15604819357 0.13535411656
          0.10894419998 0.1405955106 0.099134117365 0.23695917428 0.24732998013 0.25121676922
          0.23675207794 0.24369101226 0.24781297147 0.23481838405 0.23401032388 0.22586274147
          0.22839395702 0.24623528123 0.26009017229 0.25459346175 0.24216787517 0.25354880095
          0.24966259301 0.24844574928 0.24218675494 0.24337588251 0.24070747197 0.234132424
          0.23268337548 0.26596111059 0.25950920582 0.23547652364 0.23103527725 0.22564868629
          0.22398284078 0.22197586298 0.22342553735 0.26280319691 0.25700846314 0.24285900593
          0.25354623795 0.2587737143 0.23883146048 0.22876338661 0.25185349584 0.26742213964
          0.26134362817 0.25475904346 0.24858680367 0.23833398521 0.27371954918 0.2403126359
          0.22835801542 0.22367098927 0.27082434297 0.25920701027 0.27200984955 0.277985394
          0.25521856546 0.2432115525 0.27061444521 0.2883014977 0.28114357591 0.27437794209
          0.26684430242 0.25483962893 0.29566830397 0.25756531954 0.24313189089 0.23709857464
          0.29214584827 0.28463566303 0.30378600955 0.31206795573 0.2805621922 0.26306465268
          0.30279403925 0.32634621859 0.3168451488 0.30780690908 0.29697430134 0.28122121096
          0.33616551757 0.28585231304 0.26592051983 0.2570156157 0.33183193207 0.32637754083
          0.35873833299 0.37088662386 0.31980079412 0.29107108712 0.357614398 0.39873969555
          0.38076141477 0.36654153466 0.3477524519 0.32073095441 0.41335982084 0.32809835672
          0.29501006007 0.27978393435 0.40429714322 0.37960678339 0.42306303978 0.43898352981
          0.37137177587 0.33334821463 0.42209747434 0.47963988781 0.45416238904 0.43498429656
          0.40829947591 0.37236371636 0.49964699149 0.38121801615 0.33689492941 0.31768000126
          0.48508524895 0.44413486123 0.49673485756 0.51348572969 0.4349064827 0.38983911276
          0.49558958411 0.56710124016 0.53463196754 0.51102852821 0.47945567966 0.43503054976
          0.59036433697 0.4446965158 0.39145350456 0.37048175931 0.5702906251 0.47981309891
          0.54387801886 0.56270939112 0.46912065148 0.41552135348 0.54482609034 0.63465487957
          0.59213298559 0.56465476751 0.52402633429 0.4690875411 0.66109877825 0.47996842861
          0.41422855854 0.39029613137 0.63301318884 0.46341869235 0.53536260128 0.55720096827
          0.44930973649 0.38797706366 0.53499126434 0.640370965 0.59025579691 0.5591288209
          0.51159822941 0.44780144095 0.66974484921 0.45938706398 0.38256055117 0.35645309091
          0.63634651899 0.39999827743 0.47441717982 0.49710053205 0.38457748294 0.32100975513
          0.47443854809 0.58495014906 0.53175652027 0.49976080656 0.44945916533 0.38248458505
          0.61458843946 0.39498269558 0.31455668807 0.28752368689 0.57928287983 0.30079755187
          0.37438121438 0.39729869366 0.28579795361 0.22282828391 0.37518215179 0.48310106993
          0.43110367656 0.39972507954 0.35000792146 0.28409034014 0.51267385483 0.29679772258
          0.21677866578 0.19013917446 0.47833535075 0.16774153709 0.24304556847 0.2679143548
          0.15144585073 0.086215801537 0.24318559468 0.35419785976 0.30107927322 0.26822546124
          0.21788755059 0.15011937916 0.38534528017 0.16363196075 0.081235930324 0.052608966827
          0.35111501813 0.0045935087837 0.084359683096 0.11028698087 -0.012122299522 -0.081071570516
          0.083952382207 0.19958601892 0.14484709501 0.1106287539 0.057707991451 -0.013101869263
          0.23246344924 0.0015332769835 -0.08480720222 -0.11587317288 0.19789017737 -0.17628335953
          -0.093797206879 -0.066536955535 -0.19418109953 -0.2660151422 -0.095691040158 0.023362925276
          -0.032241359353 -0.06904990226 -0.12201842666 -0.19633288682 0.058455839753 -0.18160186708
          -0.27041086555 -0.30191576481 0.023327399045 -0.38316377997 -0.29890155792 -0.27050387859
          -0.40108644962 -0.4738560617 -0.29984945059 -0.17905424535 -0.23584103584 -0.27206599712
          -0.32749372721 -0.4019613862 -0.14362370968 -0.38594120741 -0.47630465031 -0.50947165489
          -0.17887017131 -0.60572612286 -0.52143627405 -0.49248054624 -0.62329399586 -0.69688767195
          -0.52178382874 -0.40370795131 -0.45905408263 -0.49412873387 -0.54982584715 -0.62260824442
          -0.3684066534 -0.60449111462 -0.69489258528 -0.73085671663 -0.40165606141 -0.8083422184
          -0.7231015563 -0.69337373972 -0.82682031393 -0.90199577808 -0.722448349 -0.6026506424
          -0.6594979167 -0.69334024191 -0.75156724453 -0.82622897625 -0.56767106056 -0.80672973394
          -0.90075820684 -0.93725222349 -0.60108929873 -0.98058688641 -0.89223575592 -0.86127591133
          -1.0001416206 -1.0783438683 -0.8925562501 -0.76778644323 -0.82644718885 -0.862226367
          -0.92217588425 -0.99991607666 -0.73151469231 -0.98089712858 -1.077760458 -1.1148220301
          -0.76688987017 -1.1344606876 -1.0440969467 -1.0143134594 -1.1531139612 -1.2313268185
          -1.0446038246 -0.91770470142 -0.97754299641 -1.0145800114 -1.0747249126 -1.1531164646
          -0.88054215908 -1.1343261003 -1.2310328484 -1.2681933641 -0.917286098 0.17405119538
          0.19053840637 0.1804009825 0.18879021704 0.17872926593 0.21077379584 0.22194287181
          0.20556263626 0.22156579792 0.19973382354 0.2007612288 0.21206448972 0.21350125968
          0.20160570741 0.18892547488 0.19558551908 0.16967450082 0.18348193169 0.19572390616
          0.14630241692 0.15546731651 0.18799470365 0.16520005465 0.23864628375 0.22805680335
          0.22540317476 0.26500025392 0.24111413956 0.23345389962 0.24117529392 0.27119189501
          0.25061920285 0.2911311686 0.22761563957 0.20922333002 0.21925053 0.24126467109
          0.20414708555 0.22242157161 0.22153684497 0.23268555105 0.23175740242 0.24960340559
          0.24233812094 0.27209615707 0.20751255751 0.19475354254 0.23999278247 0.26857584715
          0.25366166234 0.2955557704 0.25733566284 0.30324199796 0.21402814984 0.20647700131
          0.31337437034 0.2748349607 0.26258951426 0.31918501854 0.35237592459 0.27410060167
          0.22281250358 0.2462503314 0.26299655437 0.28608328104 0.31855005026 0.20580279827
          0.31159079075 0.3502920866 0.36610552669 0.22106873989 0.39003536105 0.34177923203
          0.32650986314 0.39671638608 0.43768802285 0.34192085266 0.28036630154 0.30778715014
          0.32927432656 0.35667741299 0.39501324296 0.25868973136 0.38594359159 0.43236115575
          0.45240822434 0.27561837435 0.498842448 0.44191744924 0.42372867465 0.50741571188
          0.55663084984 0.44236698747 0.36898583174 0.40200966597 0.42642372847 0.45996314287
          0.50625735521 0.34503373504 0.4947861433 0.5505771637 0.57498174906 0.36511594057
          0.62970077991 0.5665615797 0.54555803537 0.64215481281 0.69739001989 0.56671530008
          0.48088863492 0.52095884085 0.54585438967 0.58760333061 0.6412332058 0.45521038771
          0.62700939178 0.6941819191 0.7215924263 0.47921547294 0.74867612123 0.67643225193
          0.65055972338 0.76539665461 0.82988530397 0.67642319202 0.57469749451 0.62304979563
          0.65081948042 0.7014631629 0.76506108046 0.54577624798 0.74747371674 0.82813900709
          0.86053031683 0.57431620359 0.8229393363 0.73473978043 0.70275884867 0.84429931641
          0.92280060053 0.7357532382 0.61091059446 0.67021030188 0.70418226719 0.76572644711
          0.84354811907 0.5753057003 0.82197618484 0.92066329718 0.96042245626 0.60869705677
          0.8236925602 0.71637612581 0.67741888762 0.84868562222 0.94502949715 0.71742749214
          0.56610536575 0.63710290194 0.67996674776 0.75382012129 0.84813004732 0.5216588378
          0.82333767414 0.94246554375 0.9905782938 0.56294500828 0.75265210867 0.62885802984
          0.58550143242 0.77987468243 0.88900417089 0.62937521935 0.4570786953 0.53798472881
          0.587893188 0.67119860649 0.77910614014 0.40560892224 0.75175499916 0.887180686
          0.94101548195 0.45348677039 0.63446736336 0.49793535471 0.45035105944 0.66409403086
          0.78487068415 0.49921175838 0.30850437284 0.39736574888 0.4534612596 0.54456669092
          0.66404676437 0.25150406361 0.63458752632 0.78317207098 0.84137022495 0.3047054708
          0.48834714293 0.33705759048 0.2839832902 0.5217217207 0.65478771925 0.3388929069
          0.12524652481 0.22483289242 0.28811791539 0.38877367973 0.52189642191 0.061194647104
          0.49015933275 0.65470308065 0.71837669611 0.12163452804 0.31080830097 0.14118753374
          0.083382025361 0.34750285745 0.49639898539 0.14266456664 -0.098919659853 0.014841281809
          0.085326738656 0.19915555418 0.34856018424 -0.16939888895 0.31382834911 0.49829304218
          0.56825864315 -0.099573850632 0.1210803166 -0.067975267768 -0.13025707006 0.15952414274
          0.32404795289 -0.068041078746 -0.33633548021 -0.20928257704 -0.13114388287 -0.0052977879532
          0.16044810414 -0.41328692436 0.12276898324 0.32649609447 0.40315821767 -0.3341948092
          -0.061384081841 -0.26255723834 -0.32767865062 -0.020603282377 0.15379688144 -0.26310586929
          -0.55115741491 -0.41407588124 -0.33087423444 -0.19588364661 -0.019297862425 -0.63291460276
          -0.059055022895 0.15800657868 0.23791255057 -0.54639083147 -0.20996887982 -0.42109593749
          -0.48917987943 -0.16692917049 0.016301363707 -0.42199492455 -0.72440159321 -0.58042651415
          -0.49294418097 -0.3511069417 -0.16542454064 -0.81040394306 -0.20680463314 0.021787853912
          0.10559873283 -0.71860355139 -0.31817677617 -0.53789776564 -0.60929328203 -0.27288708091
          -0.082252584398 -0.53832870722 -0.85194945335 -0.70295351744 -0.61170125008 -0.46503773332
          -0.2716255188 -0.94138813019 -0.31459626555 -0.077734731138 0.010381576605 -0.84743070602
          -0.39598327875 -0.6200838089 -0.69361883402 -0.35016870499 -0.15534539521 -0.62072056532
          -0.93829888105 -0.78767991066 -0.6953727603 -0.54545408487 -0.34987726808 -1.0302014351
          -0.39521047473 -0.15347464383 -0.062302220613 -0.93606430292 -0.46159547567 -0.68491762877
          -0.75913482904 -0.41589340568 -0.22103762627 -0.68510752916 -1.0008691549 -0.8517113924
          -0.75979852676 -0.61037766933 -0.41572734714 -1.0929226875 -0.46159666777 -0.22096131742
          -0.12921257317 -1.0003761053 -0.52773493528 -0.75268185139 -0.82774102688 -0.48157560825
          -0.2849894166 -0.75267100334 -1.0695121288 -0.92002862692 -0.82732391357 -0.67793166637
          -0.48177537322 -1.1621640921 -0.5282407403 -0.28575003147 -0.19288851321 -1.0699071884
          0.17054593563 0.17977811396 0.17001856863 0.1862539053 0.18084287643 0.19797958434
          0.19497855008 0.18755947053 0.20440220833 0.19009372592 0.19837522507 0.18594256043
          0.21059501171 0.20771770179 0.19579572976 0.17701499164 0.16687004268 0.17496524751
          0.18912984431 0.14547492564 0.15650562942 0.18629874289 0.16819556057 0.05151521042
          0.048626255244 0.051201265305 0.058044560254 0.056135497987 0.058459162712 0.059780593961
          0.062738366425 0.062382321805 0.064836323261 0.065632641315 0.065539680421 0.064056396484
          0.03830076009 0.033657100052 0.034669548273 0.043774779886 0.04254444316 0.044780064374
          0.048002313823 0.054634995759 0.05349753052 0.061427898705 0.057240702212 0.061835050583
          0.051435641944 0.057200752199 0.05554260686 0.055486027151 0.058528315276 0.058310396969
          0.057944498956 0.06017537415 0.063197173178 0.062144387513 0.0668772012 0.063131660223
          0.065919049084 0.059821072966 0.064964234829 0.064186424017 0.064237006009 0.065286964178
          0.066106550395 0.064567729831 0.067073769867 0.067739166319 0.067795142531 0.069977499545
          0.067658498883 0.0696496889 0.065387398005 0.028848659247 0.029389139265 0.032669033855
          0.035261508077 0.033050276339 0.0330674164 0.034956391901 0.035768125206 0.036868106574
          0.036454103887 0.041174337268 0.039384324104 0.038310676813 1.8347180719e-10 -1.9564825315e-09
          3.1982932969e-10 -1.0595320628e-11 -5.466093897e-11 -2.8571669336e-11 1.8801425694e-11 3.9519266765e-13
          -1.0369731739e-13 0 0 0 1.3329844227e-13
        </DataArray>
        <DataArray type="Float32" Name="uy" format="ascii" RangeMin="-0.75445020199" RangeMax="0.94482058287">
          -0.061435308307 -0.052172414958 -0.048482518643 -0.069085754454 -0.068667687476 -0.059763893485
          -0.060457713902 -0.062051620334 -0.055632777512 -0.06234882772 -0.069023139775 -0.062176577747
          -0.067949637771 -0.065946936607 -0.054863207042 -0.062430463731 -0.066082291305 -0.068179279566
          -0.046223275363 -0.058284077793 -0.055118329823 -0.048322159797 -0.055828131735 -0.059876877815
          -0.059394940734 -0.045983567834 -0.070390835404 -0.23526439071 -0.22359129786 -0.23421785235
          -0.16901516914 -0.16017141938 -0.16895595193 -0.22055400908 -0.15838038921 -0.22744837403
          -0.16411654651 -0.20323799551 -0.19889569283 -0.21200895309 -0.14331941307 -0.13865610957
          -0.15069848299 -0.19300746918 -0.13425174356 -0.21333436668 -0.1520075798 -0.20826222003
          -0.14900043607 -0.21032571793 -0.14941324294 -0.19501394033 -0.13754762709 -0.2034792006
          -0.146232903 -0.21565008163 -0.15605029464 -0.22467412055 -0.16184729338 -0.29314857721
          -0.27947792411 -0.29228371382 -0.27528315783 -0.2833969593 -0.255056113 -0.25092247128
          -0.2662204802 -0.24318388104 -0.26698240638 -0.26011320949 -0.26485180855 -0.24397069216
          -0.25252380967 -0.26731681824 -0.28117665648 -0.33677211404 -0.32082685828 -0.33540037274
          -0.31636169553 -0.32572087646 -0.29188451171 -0.28650039434 -0.3049864769 -0.2779328227
          -0.30662864447 -0.29809001088 -0.30260494351 -0.2786757648 -0.28941473365 -0.30728149414
          -0.32204136252 -0.36119282246 -0.33973446488 -0.3594981432 -0.33418637514 -0.34593561292
          -0.30303171277 -0.29641273618 -0.31922507286 -0.28555086255 -0.32137674093 -0.31058961153
          -0.31628510356 -0.28591495752 -0.29893216491 -0.32165312767 -0.34099969268 -0.34848642349
          -0.31489408016 -0.34684157372 -0.30354839563 -0.32283651829 -0.25277552009 -0.24373291433
          -0.28225773573 -0.22255168855 -0.28356286883 -0.2644123137 -0.27948200703 -0.22205421329
          -0.24348378181 -0.2818916142 -0.31887367368 -0.26857554913 -0.22338810563 -0.26768869162
          -0.20736248791 -0.23362980783 -0.13692235947 -0.12468054891 -0.17839574814 -0.095059528947
          -0.17986394465 -0.15391382575 -0.17578113079 -0.095570996404 -0.12693850696 -0.17915445566
          -0.23142786324 -0.12699784338 -0.074354171753 -0.1281131655 -0.053856089711 -0.085934557021
          0.031089100987 0.045396178961 -0.020579857752 0.083561323583 -0.021234435961 0.010442283936
          -0.019370682538 0.081722810864 0.042177148163 -0.021519225091 -0.0864559412 0.03523016721
          0.097375296056 0.03286106512 0.12190873921 0.083339087665 0.22561471164 0.24192422628
          0.16124816239 0.29099839926 0.16130584478 0.19956089556 0.16092054546 0.28861963749
          0.23727442324 0.15936304629 0.080656021833 0.17621016502 0.24813593924 0.17386984825
          0.27726840973 0.23147855699 0.39866602421 0.41602283716 0.3220629096 0.47514361143
          0.32327476144 0.36883637309 0.3197208941 0.47296625376 0.41281181574 0.32066008449
          0.2271335125 0.26508614421 0.34004503489 0.26315191388 0.36960798502 0.32136660814
          0.49609214067 0.51379287243 0.41627395153 0.57635831833 0.41734334826 0.46473792195
          0.41345825791 0.57386177778 0.51044625044 0.41391846538 0.31830361485 0.28631392121
          0.3606608808 0.28481757641 0.38885653019 0.34164339304 0.51379477978 0.53183746338
          0.43594267964 0.59274744987 0.43656638265 0.48275005817 0.43402957916 0.5904776454
          0.52759128809 0.4325452745 0.34054076672 0.23667663336 0.31425431371 0.23609972
          0.34381553531 0.29490581155 0.47333982587 0.492015481 0.39261907339 0.55419498682
          0.39321091771 0.44147133827 0.39156585932 0.55229699612 0.4889125824 0.39017263055
          0.2938721478 0.13282515109 0.21463784575 0.13266964257 0.2459564656 0.19425882399
          0.38109746575 0.40091913939 0.29754078388 0.46533641219 0.29736194015 0.34830221534
          0.29634982347 0.46376031637 0.39786398411 0.29461956024 0.19388787448 -0.0055805733427
          0.079622834921 -0.0062799486332 0.11194497347 0.058704845607 0.25158143044 0.27218410373
          0.1650955826 0.33842086792 0.16535522044 0.21769768 0.16472603381 0.33666560054
          0.26932325959 0.16330651939 0.05848615244 -0.16627198458 -0.079997003078 -0.16661073267
          -0.04670169577 -0.10058997571 0.094338916242 0.11555383354 0.0068318415433 0.1822117269
          0.0067989835516 0.059962328523 0.0071322540753 0.1807217896 0.112879619 0.0057337344624
          -0.10079906136 -0.33746522665 -0.25003620982 -0.33694154024 -0.21721123159 -0.27090719342
          -0.077594555914 -0.05671376735 -0.16315819323 0.0080091999844 -0.16350778937 -0.11043715477
          -0.16282664239 0.0081494962797 -0.057023659348 -0.16352713108 -0.26992058754 -0.4992377758
          -0.41017442942 -0.49770709872 -0.37761646509 -0.43229967356 -0.23492130637 -0.21393355727
          -0.32179495692 -0.14759652317 -0.32285565138 -0.26826643944 -0.32028090954 -0.14646443725
          -0.21292907 -0.32248458266 -0.4287134707 -0.63473153114 -0.54258096218 -0.63346481323
          -0.5081384182 -0.56435471773 -0.36113452911 -0.34006211162 -0.45177227259 -0.27080103755
          -0.45181468129 -0.39541822672 -0.45113450289 -0.2698636055 -0.33850944042 -0.4508934021
          -0.5630941987 -0.75432509184 -0.66218423843 -0.75445020199 -0.62690401077 -0.68397969007
          -0.4794870913 -0.45830777287 -0.57069051266 -0.38800927997 -0.57050138712 -0.51378208399
          -0.57082295418 -0.38789707422 -0.45733359456 -0.57039022446 -0.68357390165 -0.075423136353
          -0.079753264785 -0.074593476951 -0.082951672375 -0.080755449831 -0.08519358933 -0.083665393293
          -0.082435160875 -0.086317040026 -0.083411984146 -0.087222345173 -0.082073152065 -0.089883156121
          -0.091681309044 -0.088298566639 -0.078360915184 -0.052825935185 -0.052165359259 -0.050555877388
          -0.056144930422 -0.055496416986 -0.051051665097 -0.054518211633 -0.12852135301 -0.1178118363
          -0.12750259042 -0.2861739397 -0.26109367609 -0.28657835722 -0.11406761408 -0.25142166018
          -0.12224266678 -0.26808831096 -0.095587454736 -0.096171170473 -0.10809803009 -0.2092936337
          -0.20355050266 -0.23564630747 -0.084547817707 -0.18230824172 -0.10681141168 -0.23537631333
          -0.099913179874 -0.22011135519 -0.11049968004 -0.23656284809 -0.083472803235 -0.18346351385
          -0.093584671617 -0.20543825626 -0.10936488211 -0.23746989667 -0.12125075608 -0.26832869649
          -0.47844573855 -0.44073599577 -0.47919952869 -0.4262560308 -0.44901043177 -0.36428868771
          -0.35363852978 -0.40160182118 -0.32644096017 -0.40233433247 -0.38008207083 -0.40042841434
          -0.32793134451 -0.35660213232 -0.40283000469 -0.44906613231 -0.63809323311 -0.59267914295
          -0.63973808289 -0.57413965464 -0.60016548634 -0.50122106075 -0.4872751534 -0.54563385248
          -0.45588499308 -0.54638779163 -0.51880562305 -0.54329156876 -0.45747601986 -0.49069234729
          -0.5440492034 -0.60234624147 -0.72667050362 -0.67181092501 -0.72777581215 -0.64970195293
          -0.68147659302 -0.56378793716 -0.54921233654 -0.61712241173 -0.50991094112 -0.61732673645
          -0.58330482244 -0.6152780652 -0.51010847092 -0.54890567064 -0.613489151 -0.68392646313
          -0.75368541479 -0.69019180536 -0.75387197733 -0.6652944684 -0.70359385014 -0.56484669447
          -0.54971843958 -0.62712448835 -0.50229591131 -0.62705606222 -0.58739852905 -0.6267029047
          -0.50080156326 -0.54720801115 -0.62406647205 -0.70444703102 -0.75025105476 -0.67435455322
          -0.74826973677 -0.64578419924 -0.69272965193 -0.52633732557 -0.51038563251 -0.60053020716
          -0.45272928476 -0.60025531054 -0.55268073082 -0.60049241781 -0.44956809282 -0.50454449654
          -0.59774214029 -0.6905426383 -0.74146485329 -0.6471658349 -0.73855257034 -0.61245274544
          -0.67110782862 -0.46505111456 -0.44596406817 -0.55575972795 -0.37606844306 -0.55565857887
          -0.4981149137 -0.55532222986 -0.37229254842 -0.43956047297 -0.55432134867 -0.66633754969
          -0.72627472878 -0.61146098375 -0.72279328108 -0.56957060099 -0.64086002111 -0.38843116164
          -0.36357161403 -0.49930649996 -0.27921742201 -0.49975532293 -0.42964681983 -0.49802073836
          -0.27586081624 -0.35843154788 -0.49856564403 -0.6348028183 -0.6701682806 -0.53983610868
          -0.66710829735 -0.4923889339 -0.57250654697 -0.28570097685 -0.25580435991 -0.4112264812
          -0.16012685001 -0.412720263 -0.33370444179 -0.40937379003 -0.15783619881 -0.25319987535
          -0.41224581003 -0.5665705204 -0.57165461779 -0.42881566286 -0.56905901432 -0.37604016066
          -0.46383678913 -0.14888337255 -0.11565829813 -0.28752887249 -0.010005048476 -0.28852638602
          -0.20177072287 -0.28620052338 -0.0084479907528 -0.11374784261 -0.28827512264 -0.4593295157
          -0.45012965798 -0.29188260436 -0.44828337431 -0.23283460736 -0.33064252138 0.020403930917
          0.057471878827 -0.13461610675 0.17561538517 -0.13563980162 -0.039004120976 -0.13365708292
          0.17648071051 0.058266140521 -0.13541695476 -0.32681450248 -0.31236690283 -0.13674429059
          -0.31172189116 -0.0695284307 -0.17845597863 0.21497255564 0.25622656941 0.038435354829
          0.39057469368 0.039323743433 0.14793984592 0.039071157575 0.39110180736 0.25709277391
          0.03970149532 -0.17779448628 -0.17213220894 0.020769318566 -0.17273364961 0.095282480121
          -0.024617381394 0.40922987461 0.45414426923 0.21414786577 0.60381996632 0.21483129263
          0.33519521356 0.21266099811 0.60419893265 0.45490124822 0.21456705034 -0.026348680258
          -0.048402972519 0.15661399066 -0.050482768565 0.23599776626 0.10862608254 0.5721616745
          0.620849967 0.36314842105 0.78159058094 0.36392739415 0.49185332656 0.36109054089
          0.77968758345 0.61817520857 0.36216843128 0.10482276976 0.028180917725 0.2435914129
          0.025981580839 0.3270458281 0.19269487262 0.68091380596 0.73190885782 0.46038493514
          0.90136575699 0.46175208688 0.59645497799 0.45800873637 0.89978122711 0.72964096069
          0.45932510495 0.18848980963 0.041415371001 0.26543360949 0.039950791746 0.35203784704
          0.21232688427 0.71740245819 0.76977360249 0.48981657624 0.94482058287 0.49101540446
          0.63064986467 0.48801338673 0.9438918829 0.76902449131 0.48974901438 0.20961913466
          0.0057494938374 0.2346213609 0.0052207070403 0.32186505198 0.18004986644 0.69420731068
          0.74841803312 0.4638594687 0.9249638319 0.46396684647 0.60580015182 0.46321859956
          0.92412656546 0.74690550566 0.46266716719 0.17933227122 -0.042331717908 0.18717540801
          -0.04268893972 0.27454611659 0.13297313452 0.64620727301 0.70014864206 0.41638922691
          0.87561160326 0.41685017943 0.55841445923 0.41635102034 0.87556189299 0.70003038645
          0.41655743122 0.13234849274 -0.099889598787 0.13102410734 -0.099788241088 0.21948246658
          0.076727688313 0.592012465 0.6461353898 0.36133894324 0.82202267647 0.36203980446
          0.50448662043 0.36122372746 0.82227122784 0.64661020041 0.36205708981 0.076134026051
          -0.026589004323 -0.033965244889 -0.026380347088 -0.035512976348 -0.032317411155 -0.041707579046
          -0.046788509935 -0.040273420513 -0.04478693381 -0.038531649858 -0.039242375642 -0.043118078262
          -0.042877588421 -0.041962269694 -0.038589905947 -0.034401979297 -0.040970399976 -0.041795436293
          -0.037866670638 -0.045200131834 -0.041833505034 -0.036381430924 -0.039008684456 -0.12660624087
          -0.13338783383 -0.14158046246 -0.1452819109 -0.1344986558 -0.12502267957 -0.13466849923
          -0.14364330471 -0.13504132628 -0.13884960115 -0.13087826967 -0.13404607773 -0.12736852467
          -0.17652858794 -0.18422088027 -0.19365544617 -0.20107813179 -0.18616816401 -0.17379531264
          -0.18671241403 -0.20078675449 -0.18678471446 -0.19431883097 -0.17858529091 -0.18586996198
          -0.17505548894 -0.18007776141 -0.18322785199 -0.1868725121 -0.19086916745 -0.18471243978
          -0.17962549627 -0.18482710421 -0.19139434397 -0.184209764 -0.1870457828 -0.17905826867
          -0.18161374331 -0.17856892943 -0.123949036 -0.12543775141 -0.1276511699 -0.12983362377
          -0.12569989264 -0.12229227275 -0.12528115511 -0.13017299771 -0.12523220479 -0.12771809101
          -0.1212021783 -0.12411507964 -0.12105670571 -0.042665570974 -0.047418981791 -0.050129301846
          -0.049490518868 -0.045327603817 -0.039480153471 -0.045318812132 -0.049051109701 -0.046125881374
          -0.049954023212 -0.045967619866 -0.04920213297 -0.041233215481 -2.5455575148e-11 6.7726241282e-11
          1.827060031e-11 -2.2087397883e-11 1.1806249554e-11 2.913191216e-11 3.4482588226e-12 2.8379089443e-13
          1.5576607929e-13 0 0 0 -7.955630512e-13
        </DataArray>
        <DataArray type="Float32" Name="uz" format="ascii" RangeMin="-0.39761179686" RangeMax="0.26608672738">
          0.04237363115 0.034058466554 0.041549433023 0.007287603803 -0.032024759799 -0.031555436552
          -0.037699673325 0.032505683601 0.026843478903 0.009861738421 -0.0050185457803 -0.048691947013
          -0.040484860539 -0.033334765583 0.052251812071 0.035987820476 -0.031187929213 -0.0095709301531
          0.027306368575 -0.013636350632 -0.038373213261 0.020968902856 -0.042982470244 -0.025857141241
          0.014814945869 0.047951538116 0.0014773590956 -0.1881287843 -0.17111209035 -0.16683170199
          -0.18521773815 -0.16418276727 -0.16482913494 -0.18916371465 -0.17958888412 -0.20319199562
          -0.19683173299 -0.16650947928 -0.1448764801 -0.15695273876 -0.14771252871 -0.12447592616
          -0.14482153952 -0.16094316542 -0.13455680013 -0.17410941422 -0.16142012179 -0.18590214849
          -0.16945923865 -0.13997583091 -0.12783318758 -0.18065853417 -0.15474894643 -0.19821456075
          -0.17818836868 -0.20679306984 -0.19440296292 -0.14851419628 -0.14364701509 -0.19846476614
          -0.18251298368 -0.18152993917 -0.1963827759 -0.20929040015 -0.17630682886 -0.1586228013
          -0.17033241689 -0.16916431487 -0.18341246247 -0.19188682735 -0.15689595044 -0.18466678262
          -0.20008669794 -0.20958983898 -0.16553795338 -0.2098236531 -0.19697935879 -0.20065313578
          -0.20263405144 -0.21314591169 -0.18471226096 -0.1735470742 -0.18589627743 -0.17612272501
          -0.1929564476 -0.19490465522 -0.17845365405 -0.18536436558 -0.19757811725 -0.20822913945
          -0.18896959722 -0.21946439147 -0.21299363673 -0.22419194877 -0.20522129536 -0.20898151398
          -0.19439098239 -0.19540292025 -0.20629991591 -0.18482157588 -0.20263575017 -0.19387355447
          -0.20890977979 -0.1811838448 -0.18505217135 -0.1956191361 -0.22029435635 -0.225615412
          -0.23003150523 -0.25063860416 -0.20270140469 -0.1953830421 -0.20269106328 -0.22458310425
          -0.22999064624 -0.19410012662 -0.21024535596 -0.18571737409 -0.24964818358 -0.16964577138
          -0.16065536439 -0.17050759494 -0.25968915224 -0.22748075426 -0.24374753237 -0.27282625437
          -0.19684150815 -0.1779333204 -0.21002790332 -0.2542103231 -0.25217950344 -0.20401920378
          -0.21566145122 -0.17606420815 -0.28944095969 -0.15869770944 -0.13507959247 -0.14278720319
          -0.29632917047 -0.2204887569 -0.24927926064 -0.27994316816 -0.19157929718 -0.16201238334
          -0.22125689685 -0.27928689122 -0.26782307029 -0.22031506896 -0.22082163393 -0.17427688837
          -0.31596183777 -0.1615537405 -0.12538529932 -0.12599892914 -0.31601092219 -0.20135772228
          -0.24190162122 -0.26118373871 -0.18741163611 -0.15022140741 -0.23495100439 -0.29689061642
          -0.27126327157 -0.24592503905 -0.22377575934 -0.18323497474 -0.3201457262 -0.18638415635
          -0.14071512222 -0.12749023736 -0.30651172996 -0.18242062628 -0.22585566342 -0.22708980739
          -0.1894390583 -0.15354377031 -0.245521456 -0.29532784224 -0.26045966148 -0.26704657078
          -0.22469002008 -0.20186215639 -0.29711154103 -0.22264744341 -0.17897570133 -0.15246260166
          -0.27086728811 -0.17297956347 -0.21000267565 -0.19313102961 -0.19997297227 -0.1735496223
          -0.25266259909 -0.27820104361 -0.24242757261 -0.2789734304 -0.2263225019 -0.22696866095
          -0.25820568204 -0.25982278585 -0.22784397006 -0.1946939677 -0.2260068655 -0.16887231171
          -0.19703404605 -0.16501685977 -0.21288822591 -0.19670920074 -0.2592304945 -0.26108834147
          -0.22547902167 -0.28927856684 -0.22931486368 -0.25202468038 -0.22166740894 -0.29444494843
          -0.27449837327 -0.23720686138 -0.18530984223 -0.16643440723 -0.1875166446 -0.14211851358
          -0.22445341945 -0.21604736149 -0.26579728723 -0.24840904772 -0.21243961155 -0.29886111617