<VTKFile type="UnstructuredGrid" version="1.0" byte_order="LittleEndian" header_type="UInt64">
  <UnstructuredGrid>
    <Piece NumberOfPoints="791" NumberOfCells="973">
      <PointData>
        <DataArray type="Float32" Name="ux" format="ascii" RangeMin="-1.0824061632" RangeMax="0">
          -0.091461628675 -0.09985691309 -0.10309394449 -0.08991073817 -0.091462373734 -0.10309167951
          -0.099855534732 -0.091467261314 -0.097718954086 -0.092907309532 -0.089926823974 -0.097717747092
          -0.091465309262 -0.092900283635 -0.097746573389 -0.092907823622 -0.097748197615 -0.092917382717
          -0.1084080264 -0.097092926502 -0.10841130465 -0.10836574435 -0.10836734623 -0.10838980228
          -0.097083710134 -0.10839125514 -0.088911578059 -0.20549729466 -0.20542880893 -0.20549222827
          -0.16692215204 -0.16689696908 -0.16691602767 -0.20540910959 -0.16688416898 -0.20540976524
          -0.16685204208 -0.20542140305 -0.20537762344 -0.20538142323 -0.16692982614 -0.16690175235
          -0.16687214375 -0.20547045767 -0.16701632738 -0.2054066211 -0.16689753532 -0.20540337265
          -0.16690734029 -0.20532537997 -0.16681133211 -0.20547647774 -0.16701841354 -0.20539358258
          -0.16691617668 -0.20534910262 -0.16683541238 -0.20539389551 -0.16683636606 -0.24589182436
          -0.24583826959 -0.24588641524 -0.24582117796 -0.24581444263 -0.24583826959 -0.24580131471
          -0.24579793215 -0.24588918686 -0.24582155049 -0.24582161009 -0.24574548006 -0.24589440227
          -0.24581724405 -0.24576863647 -0.24579879642 -0.28803572059 -0.28798487782 -0.28803032637
          -0.2879704833 -0.2879666388 -0.28798499703 -0.2879499495 -0.28794845939 -0.2880294323
          -0.28797021508 -0.2879704535 -0.28790083528 -0.28803503513 -0.28796595335 -0.28792393208
          -0.28795075417 -0.33174708486 -0.33170136809 -0.33174151182 -0.33168882132 -0.33168536425
          -0.33170098066 -0.33166909218 -0.33166792989 -0.33174103498 -0.33168801665 -0.3316886127
          -0.33162459731 -0.33174663782 -0.33168521523 -0.33164742589 -0.33166942 -0.37686619163
          -0.37682491541 -0.37686052918 -0.37681445479 -0.3768119812 -0.3768247366 -0.37679556012
          -0.37679490447 -0.37686008215 -0.37681335211 -0.37681436539 -0.37675580382 -0.3768658042
          -0.37681177258 -0.37677842379 -0.37679588795 -0.42323675752 -0.42319989204 -0.42323100567
          -0.42319136858 -0.42318966985 -0.42319965363 -0.42317318916 -0.42317301035 -0.42323058844
          -0.42318984866 -0.42319124937 -0.42313799262 -0.42323639989 -0.42318949103 -0.42316040397
          -0.42317348719 -0.47070816159 -0.47067546844 -0.47070232034 -0.47066882253 -0.47066789865
          -0.47067525983 -0.47065135837 -0.47065162659 -0.4707019031 -0.47066694498 -0.47066873312
          -0.47062048316 -0.47070780396 -0.47066771984 -0.47064271569 -0.47065162659 -0.51913619041
          -0.51910746098 -0.51913028955 -0.519102633 -0.51910245419 -0.51910728216 -0.51908582449
          -0.51908653975 -0.51912993193 -0.51910042763 -0.51910251379 -0.51905912161 -0.51913589239
          -0.51910227537 -0.51908111572 -0.51908606291 -0.56838387251 -0.56835889816 -0.56837785244
          -0.56835573912 -0.56835621595 -0.56835871935 -0.56833958626 -0.56834065914 -0.56837749481
          -0.56835317612 -0.56835561991 -0.56831675768 -0.56838357449 -0.56835609674 -0.56833857298
          -0.56833976507 -0.6183219552 -0.61830049753 -0.61831587553 -0.61829888821 -0.6183000803
          -0.61830037832 -0.61828333139 -0.61828482151 -0.61831557751 -0.61829608679 -0.6182988286
          -0.6182641387 -0.61832171679 -0.61829996109 -0.61828583479 -0.61828356981 -0.66883003712
          -0.6688117981 -0.66882383823 -0.66881161928 -0.66881340742 -0.66881167889 -0.66879659891
          -0.66879844666 -0.66882359982 -0.66880851984 -0.66881155968 -0.66878074408 -0.6688297987
          -0.66881328821 -0.66880232096 -0.66879677773 -0.71979683638 -0.71978151798 -0.71979057789
          -0.71978271008 -0.71978497505 -0.71978139877 -0.71976816654 -0.71977031231 -0.71979039907
          -0.71977931261 -0.71978259087 -0.71975535154 -0.71979659796 -0.71978485584 -0.71977674961
          -0.71976828575 -0.77112138271 -0.77110868692 -0.77111512423 -0.77111101151 -0.77111381292
          -0.77110862732 -0.77109694481 -0.7710993886 -0.77111488581 -0.77110743523 -0.7711109519
          -0.77108687162 -0.7711212039 -0.77111369371 -0.77110815048 -0.77109706402 -0.82271361351
          -0.8227031827 -0.82270729542 -0.82270652056 -0.82270973921 -0.82270312309 -0.82269287109
          -0.8226955533 -0.8227071166 -0.82270276546 -0.82270652056 -0.82268512249 -0.8227134347
          -0.8227096796 -0.82270628214 -0.8226929903 -0.87449508905 -0.87448662519 -0.87448871136
          -0.87449079752 -0.8744943738 -0.87448656559 -0.87447744608 -0.8744803071 -0.87448859215
          -0.87448686361 -0.87449079752 -0.87447172403 -0.87449496984 -0.87449431419 -0.87449276447
          -0.87447750568 -0.92639994621 -0.92639297247 -0.92639350891 -0.92639786005 -0.92640167475
          -0.92639291286 -0.92638474703 -0.92638778687 -0.92639344931 -0.92639380693 -0.92639786005
          -0.92638063431 -0.926399827 -0.92640167475 -0.92640161514 -0.92638480663 -0.97837549448
          -0.97836965322 -0.97836905718 -0.97837501764 -0.97837907076 -0.97836959362 -0.97836214304
          -0.97836530209 -0.97836899757 -0.97837090492 -0.97837501764 -0.9783591032 -0.97837543488
          -0.97837901115 -0.97838008404 -0.97836220264 -1.03038311 -1.030377984 -1.0303766727
          -1.0303837061 -1.0303878784 -1.030377984 -1.0303709507 -1.0303741693 -1.0303766727
          -1.0303794146 -1.0303837061 -1.0303685665 -1.03038311 -1.0303878784 -1.0303895473
          -1.0303709507 -1.0823991299 -1.0823942423 -1.0823926926 -1.0824000835 -1.0824042559
          -1.0823942423 -1.0823873281 -1.0823905468 -1.0823926926 -1.082395792 -1.0824000835
          -1.0823853016 -1.0823991299 -1.0824042559 -1.0824061632 -1.0823873281 -0.11676511168
          -0.12273534387 -0.1167505011 -0.12499924749 -0.12131347507 -0.13456743956 -0.13595530391
          -0.12864081562 -0.14054471254 -0.12865777314 -0.13230761886 -0.12859798968 -0.14054104686
          -0.13597211242 -0.12862285972 -0.12129922211 -0.11715937406 -0.11914245039 -0.12585690618
          -0.10844385624 -0.11381043494 -0.1258764118 -0.1191591844 -0.16692075133 -0.16689513624
          -0.16691398621 -0.20549489558 -0.20542567968 -0.20548886061 -0.1668830961 -0.20540679991
          -0.16685129702 -0.20540809631 -0.16692791879 -0.16689887643 -0.16686964035 -0.20541828871
          -0.20537357032 -0.20537784696 -0.16701419652 -0.20546711981 -0.16689586639 -0.20540373027
          -0.1669062525 -0.20540106297 -0.16680826247 -0.20532104373 -0.16701717675 -0.20547403395
          -0.16691567004 -0.20539185405 -0.16683515906 -0.2053476572 -0.16683366895 -0.20538979769
          -0.24588811398 -0.24583390355 -0.24588182569 -0.24581761658 -0.2458114624 -0.24583390355
          -0.2457960099 -0.24579305947 -0.2458845973 -0.24581739306 -0.24581804872 -0.24573989213
          -0.24589069188 -0.24581424892 -0.24576593935 -0.2457934767 -0.2880307138 -0.28797921538
          -0.28802442551 -0.28796562552 -0.28796237707 -0.28797930479 -0.28794333339 -0.28794229031
          -0.28802353144 -0.28796476126 -0.28796559572 -0.28789395094 -0.28803002834 -0.28796166182
          -0.28791993856 -0.28794410825 -0.33174073696 -0.33169436455 -0.33173426986 -0.33168259263
          -0.33167976141 -0.33169394732 -0.33166113496 -0.3316604197 -0.33173379302 -0.33168122172
          -0.33168238401 -0.33161634207 -0.33174028993 -0.3316795826 -0.33164206147 -0.33166143298
          -0.37685844302 -0.37681651115 -0.37685191631 -0.3768068552 -0.37680497766 -0.37681633234
          -0.37678623199 -0.37678602338 -0.37685143948 -0.37680515647 -0.37680676579 -0.37674617767
          -0.37685805559 -0.37680473924 -0.37677168846 -0.37678653002 -0.4232276082 -0.42319005728
          -0.42322096229 -0.42318236828 -0.42318126559 -0.42318984866 -0.42316243052 -0.42316269875
          -0.42322054505 -0.42318025231 -0.42318224907 -0.42312693596 -0.42322725058 -0.42318105698
          -0.42315223813 -0.42316272855 -0.47069755197 -0.47066420317 -0.47069081664 -0.47065836191
          -0.47065803409 -0.47066399455 -0.47063913941 -0.47063985467 -0.47069042921 -0.47065591812
          -0.4706582725 -0.47060799599 -0.47069722414 -0.47065785527 -0.47063311934 -0.47063940763
          -0.51912415028 -0.51909476519 -0.51911729574 -0.51909071207 -0.5190911293 -0.51909458637
          -0.51907217503 -0.51907330751 -0.51911693811 -0.51908791065 -0.51909059286 -0.51904517412
          -0.51912379265 -0.51909095049 -0.51907008886 -0.51907241344 -0.56837028265 -0.56834465265
          -0.56836336851 -0.56834232807 -0.56834340096 -0.56834453344 -0.56832438707 -0.56832593679
          -0.56836307049 -0.56833916903 -0.56834220886 -0.56830126047 -0.56836998463 -0.56834322214
          -0.568326056 -0.56832462549 -0.61830693483 -0.61828476191 -0.61829990149 -0.61828398705
          -0.61828571558 -0.6182846427 -0.61826664209 -0.61826860905 -0.61829966307 -0.61828058958
          -0.61828392744 -0.61824721098 -0.61830663681 -0.61828559637 -0.61827176809 -0.61826688051
          -0.66881340742 -0.66879451275 -0.66880637407 -0.6687951684 -0.66879749298 -0.66879439354
          -0.66877841949 -0.66878068447 -0.66880613565 -0.66879147291 -0.6687951088 -0.66876226664
          -0.668813169 -0.66879737377 -0.66878670454 -0.66877859831 -0.71977871656 -0.71976274252
          -0.71977156401 -0.71976470947 -0.7197675705 -0.71976262331 -0.7197484374 -0.7197510004
          -0.71977132559 -0.71976077557 -0.71976464987 -0.71973532438 -0.71977847815 -0.71976745129
          -0.71975964308 -0.71974855661 -0.77110171318 -0.77108836174 -0.77109450102 -0.77109146118
          -0.77109485865 -0.77108824253 -0.77107566595 -0.77107852697 -0.7710943222 -0.77108734846
          -0.77109146118 -0.77106529474 -0.77110153437 -0.77109473944 -0.77108949423 -0.77107578516
          -0.82269239426 -0.82268130779 -0.82268512249 -0.82268548012 -0.82268923521 -0.82268124819
          -0.82266998291 -0.82267314196 -0.82268500328 -0.82268106937 -0.82268542051 -0.82266199589
          -0.82269221544 -0.82268917561 -0.82268607616 -0.82267010212 -0.87447232008 -0.87446314096
          -0.87446504831 -0.87446814775 -0.87447232008 -0.87446308136 -0.87445306778 -0.87445634604
          -0.8744648695 -0.8744636178 -0.87446808815 -0.87444704771 -0.87447220087 -0.87447220087
          -0.87447100878 -0.87445312738 -0.92637556791 -0.92636793852 -0.92636823654 -0.92637366056
          -0.92637807131 -0.92636787891 -0.92635881901 -0.92636227608 -0.92636817694 -0.9263690114
          -0.92637360096 -0.92635434866 -0.92637550831 -0.9263780117 -0.92637825012 -0.92635887861
          -0.97834956646 -0.97834306955 -0.97834223509 -0.97834926844 -0.97835385799 -0.97834300995
          -0.97833460569 -0.97833818197 -0.97834217548 -0.97834450006 -0.97834920883 -0.97833132744
          -0.97834950686 -0.97835385799 -0.9783551693 -0.9783346653 -1.0303555727 -1.0303498507
          -1.0303483009 -1.030356288 -1.0303610563 -1.0303498507 -1.0303418636 -1.0303454399
          -1.0303481817 -1.0303515196 -1.030356288 -1.030339241 -1.0303555727 -1.0303610563
          -1.0303630829 -1.0303418636 -1.0823700428 -1.0823645592 -1.082362771 -1.0823711157
          -1.0823758841 -1.0823645592 -1.0823566914 -1.0823603868 -1.082362771 -1.0823663473
          -1.0823711157 -1.0823543072 -1.0823700428 -1.0823758841 -1.082378149 -1.0823566914
          -0.11676600575 -0.12273456156 -0.11674953997 -0.12499940395 -0.12131533772 -0.13456657529
          -0.13595341146 -0.12863996625 -0.14054340124 -0.12865720689 -0.13230766356 -0.12859581411
          -0.14054070413 -0.13597270846 -0.12862406671 -0.1212971881 -0.11715897173 -0.11914135516
          -0.12585644424 -0.10844416916 -0.11381097883 -0.1258764267 -0.11915972084 -0.059039600194
          -0.058868791908 -0.059037838131 -0.059374652803 -0.059123788029 -0.059375099838 -0.059165645391
          -0.059376288205 -0.059128053486 -0.059038899839 -0.059036485851 -0.058873675764 -0.059376176447
          -0.036155354232 -0.036125753075 -0.036155726761 -0.036375358701 -0.036137189716 -0.036375295371
          -0.036149416119 -0.03637592867 -0.036137335002 -0.036157935858 -0.036158468574 -0.036127392203
          -0.036375902593 -0.019406903535 -0.019342109561 -0.019406797364 -0.019647195935 -0.01940786466
          -0.019647214562 -0.019422972575 -0.019647672772 -0.019408585504 -0.019407873973 -0.01940773055
          -0.019343718886 -0.019647676498 -0.0081882234663 -0.0081351054832 -0.0081882234663 -0.008412883617
          -0.0081892488524 -0.0084128938615 -0.0082053923979 -0.0084131862968 -0.0081895776093 -0.0081890430301
          -0.0081890523434 -0.0081360107288 -0.0084131704643 -0.0018975228304 -0.0018320714589 -0.001897497219
          -0.0021662877407 -0.0018872509245 -0.0021662989166 -0.0019001050387 -0.0021664374508 -0.0018874325324
          -0.0018978721928 -0.0018978443695 -0.0018325272249 -0.0021664274391 0 0
          0 0 0 0 0 0
          0 0 0 0 0
        </DataArray>
        <DataArray type="Float32" Name="uy" format="ascii" RangeMin="-0.00069863704266" RangeMax="0.00058931455715">
          -3.8934522308e-05 2.0513403797e-05 -5.8975307184e-05 -2.9237130548e-06 2.8933734939e-05 4.9188834964e-05
          -2.9990746043e-05 3.2122072298e-05 0.00012224119564 2.6863110179e-05 -3.1943447993e-06 -0.00013192184269
          -4.1986946599e-05 -3.5691631638e-05 -0.0001225679589 -4.6378016123e-05 0.0001129029406 3.7779016566e-05
          5.9018842876e-05 -4.9330851652e-06 -6.9500834798e-05 5.8073532273e-05 -6.8450026447e-05 5.5235766922e-05
          -4.9857158047e-06 -6.5439118771e-05 -2.9785055631e-06 -6.3102444983e-05 -0.00012002438598 -0.00016108161071
          -4.6891251259e-05 -8.9421082521e-05 -0.00012419001723 -8.2834616478e-05 -6.5589061705e-05 -2.8502261557e-05
          -1.5524154151e-05 -8.3420170995e-05 -1.8016326067e-05 -0.00010197232768 -5.5334669014e-05 1.2868425074e-05
          -6.7789464083e-05 -4.2702864448e-05 -1.2081635759e-05 -0.00010146509885 -7.5885785918e-05 -0.00011963018187
          -9.9360433524e-05 -0.0001006969469 -7.1545327955e-05 -0.0001396308362 -0.00011592369265 -0.00017495726934
          -0.00015412303037 -0.00010209564061 -8.2063677837e-05 -0.0001847781532 -0.00014607624325 -9.6279945865e-05
          -0.00014588421618 -0.0001826925436 -0.00011270659161 -6.3924744609e-05 -0.00011230808741 -5.4609718063e-05
          -0.00012927532953 -7.5610652857e-05 -0.00012902505114 -0.0001448415569 -0.00012986462389 -0.00016121599765
          -0.00019292828802 -0.00012835607049 -0.00020467942522 -0.0001286870538 -0.0001731691591 -0.00020711297111
          -0.00014316760644 -9.9378288724e-05 -0.0001418159809 -8.8995031547e-05 -0.00015759657254 -0.00010791447858
          -0.00015747922589 -0.00017166764883 -0.00015766044089 -0.00018612881831 -0.00021538024885 -0.00015737531066
          -0.00022622286633 -0.00016215538199 -0.00020157289691 -0.00023248535581 -0.00017435743939 -0.0001353747939
          -0.0001723968162 -0.00012498287833 -0.0001870826818 -0.00014151071082 -0.00018694908067 -0.00019934109878
          -0.00018725714472 -0.00021153605485 -0.00023813823645 -0.00018672685837 -0.00024937797571 -0.00019634656201
          -0.00023084052373 -0.00025889687822 -0.00020645532641 -0.00017212856619 -0.00020380805654 -0.00016151748423
          -0.00021742153331 -0.00017579291307 -0.00021729775472 -0.00022796589474 -0.00021755805938 -0.00023806469108
          -0.00026213304955 -0.00021711389127 -0.00027346456773 -0.00023119151592 -0.00026094933855 -0.00028622636455
          -0.00023925147252 -0.00020941912953 -0.00023596614483 -0.00019862715271 -0.0002485436853 -0.00021072369418
          -0.00024843050051 -0.00025744634331 -0.00024867407046 -0.00026550082839 -0.00028712803032 -0.00024825235596
          -0.00029860131326 -0.0002665676875 -0.00029178810655 -0.00031441234751 -0.00027267439873 -0.0002471410553
          -0.00026877192431 -0.00023617000261 -0.00028035999276 -0.00024618234602 -0.00028025527718 -0.00028768490301
          -0.00028047812521 -0.00029378922773 -0.00031307848985 -0.00028009046218 -0.00032467558049 -0.00030236967723
          -0.00032327856752 -0.00034337938996 -0.00030661839992 -0.00028517239843 -0.00030213038553 -0.00027403098647
          -0.00031277653761 -0.00028206262505 -0.00031268130988 -0.00031860548188 -0.00031288372702 -0.00032285397174
          -0.00033992220415 -0.00031252822373 -0.00035163827124 -0.00033849372994 -0.00035533824121 -0.00037306110607
          -0.0003409916535 -0.00032339798054 -0.00033595098648 -0.00031209419831 -0.00034570958815 -0.00031825961196
          -0.00034562332439 -0.00035012842272 -0.00034580580541 -0.00035262855818 -0.00036760373041 -0.00034548260737
          -0.00037942972267 -0.00037484048516 -0.0003878918651 -0.00040339535917 -0.0003757046652 -0.00036170642124
          -0.00037014775444 -0.00035024949466 -0.00037907753722 -0.00035467394628 -0.00037900035386 -0.00038218189729
          -0.00037916301517 -0.00038305009366 -0.00039607266081 -0.00037887218059 -0.00040799964336 -0.0004113157338
          -0.00042086883332 -0.00043432565872 -0.00041067352868 -0.00039999122964 -0.00040463989717 -0.00038839099579
          -0.00041280509322 -0.00039121072041 -0.00041273684474 -0.0004146983847 -0.00041288000648 -0.00041406170931
          -0.00042528432095 -0.00041262150626 -0.00043730236939 -0.00044783079647 -0.00045420459355 -0.00046580145136
          -0.00044581992552 -0.00043815121171 -0.00043935229769 -0.00042641840992 -0.00044682226144 -0.00042778078932
          -0.00044676288962 -0.00044761653407 -0.00044688684284 -0.00044561232789 -0.00045520017738 -0.00044666067697
          -0.0004672986106 -0.00048430298921 -0.00048784073442 -0.00049777864479 -0.00048107170733 -0.00047609122703
          -0.00047421612544 -0.0004642373533 -0.00048106547911 -0.00046430097427 -0.00048101489665 -0.00048088131007
          -0.00048111996148 -0.00047765730415 -0.00048578818678 -0.00048092612997 -0.00049795542145 -0.000520656351
          -0.00052172580035 -0.0005302199861 -0.0005163634778 -0.00051372271264 -0.00050916924374 -0.000501760107
          -0.00051547790645 -0.0005006948486 -0.00051543605514 -0.00051444442943 -0.00051552255172 -0.00051015900681
          -0.00051702331984 -0.00051536108367 -0.00052924704505 -0.0005568221095 -0.00055581558263 -0.0005630957894
          -0.00055163702928 -0.0005509640323 -0.00054415664636 -0.00053890584968 -0.00055001006695 -0.00053689302877
          -0.00054997677216 -0.00054826511769 -0.00055004516616 -0.00054308713879 -0.00054888799787 -0.00054991600337
          -0.00056115514599 -0.0005927393795 -0.00059007346863 -0.00059638381936 -0.00058684230316 -0.00058774190256
          -0.00057913159253 -0.00057560217101 -0.00058462028392 -0.00057283428032 -0.00058459542925 -0.00058230984723
          -0.00058464606991 -0.00057641899912 -0.00058137235465 -0.00058454921236 -0.00059366878122 -0.0006283542607
          -0.00062447256641 -0.00063007185236 -0.00062193564372 -0.00062398880254 -0.00061405432643 -0.00061178242322
          -0.00061927508796 -0.00060846412089 -0.00061925861519 -0.00061655568425 -0.00061929208459 -0.00061014172388
          -0.00061447679764 -0.00061922724126 -0.00062678806717 -0.00066362752113 -0.00065899034962 -0.00066415057518
          -0.0006568893441 -0.00065965601243 -0.00064889789792 -0.00064739672234 -0.00065394950798 -0.00064374209614
          -0.00065394182457 -0.00065098208142 -0.0006539573078 -0.00064424640732 -0.0006482033059 -0.00065392692341
          -0.00066051178146 -0.00069851340959 -0.00069362390786 -0.00069863704266 -0.00069166743197 -0.00069467368303
          -0.00068363762693 -0.00068239163375 -0.00068863260094 -0.00067862606375 -0.0006886299816 -0.00068558834027
          -0.0006886353367 -0.00067874311935 -0.00068257766543 -0.0006886246847 -0.00069487700239 1.1263294255e-05
          -5.7607277995e-05 -9.5332681667e-05 -2.325909918e-05 3.6083063605e-05 -2.4212147764e-05 5.5815224187e-05
          -3.2143540011e-05 2.0902920369e-05 -4.1962153773e-05 -7.205120346e-05 -3.216776895e-05 -0.00010073375597
          -0.0001424918446 -5.3884668887e-05 -0.00011941250705 -1.5165563127e-05 1.5536992578e-05 1.6692667486e-05
          -9.9032858998e-06 3.0687253911e-06 -5.2484960179e-05 -4.5869459427e-05 3.4399163269e-05 7.6336051279e-05
          0.00011169291247 4.6519639e-05 0.00010272875079 0.00014449436276 5.2244769904e-05 6.5276617534e-05
          2.5529568575e-06 1.1378542695e-05 4.0780327254e-05 -2.7556172427e-05 5.3972311434e-05 6.4770742028e-05
          -8.0524000623e-07 8.3996907051e-05 -3.1701051739e-06 2.33714145e-05 6.2049599364e-05 8.3497267042e-05
          8.5086270701e-05 0.00010123818356 5.7729361288e-05 8.2713551819e-05 0.00010066593677 0.00012029753998
          0.00013940356439 0.00015613973665 6.8253124482e-05 8.4113351477e-05 0.00013309289352 0.00016764798784
          7.5378418842e-05 0.00012429624621 0.00016179011436 9.0854155133e-05 4.24925056e-05 8.9344241132e-05
          3.1481940823e-05 0.00010699478298 5.1965911553e-05 0.00010674587975 0.00012213665468 0.00010757783457
          0.00013756866974 0.00016979497741 0.00010606899014 0.00018324516714 0.00010330241639 0.00014709262177
          0.0001817260636 0.00011682786862 7.3462535511e-05 0.00011436834757 6.1382190324e-05 0.00013083154045
          7.9784331319e-05 0.00013071623107 0.00014447935973 0.00013088980631 0.00015799638641 0.00018776439538
          0.00013060487981 0.00020030319865 0.00013212616614 0.00017085354193 0.00020245456835 0.00014337465109
          0.00010481511708 0.00014030491002 9.2726375442e-05 0.00015567392984 0.0001087361743 0.00015554216225
          0.00016750888608 0.00015584329958 0.00017875953927 0.00020587873587 0.00015531314421 0.00021881547582
          0.00016153082834 0.00019533472368 0.0002240796166 0.00017068629677 0.00013678307005 0.00016692992358
          0.00012447497284 0.00018122694746 0.0001382316259 0.00018110475503 0.00019134770264 0.00018135894788
          0.00020050158491 0.00022508787515 0.00018091489619 0.00023811635037 0.00019146235718 0.00022053059365
          0.00024649588158 0.00019856958534 0.00016916079039 0.00019417483418 0.00015667174011 0.00020743627101
          0.00016824880731 0.00020732452685 0.00021591526456 0.0002075626835 0.00022302436992 0.00024517026031
          0.00020714107086 0.00025834061671 0.00022181350505 0.00024634468718 0.00026965703 0.00022696796805
          0.00020185830363 0.00022195585188 0.00018919007562 0.00023422820959 0.00019868226082 0.00023412473092
          0.00024112932442 0.00023434287868 0.0002462877892 0.00026609652559 0.00023395528842 0.000279390777
          0.00025249342434 0.00027271342697 0.00029350214754 0.00025579033536 0.00023476811475 0.0002501924464
          0.00022192945471 0.00026152323699 0.00022944030934 0.00026142905699 0.00026692831307 0.0002616274578
          0.00027023049188 0.00028781892615 0.00026127204183 0.00030123221222 0.00028341216967 0.00029956814251
          0.00031797870179 0.00028495871811 0.00026778894244 0.00027880800189 0.00025478782482 0.00028925156221
          0.00026043187245 0.00028916617157 0.00029324644129 0.00028934527654 0.00029479980003 0.00031029587262
          0.00028902213671 0.00032381917117 0.00031448347727 0.00032684663893 0.00034303768189 0.00031439671875
          0.00030082245939 0.00030772952596 0.00028766813921 0.00031734461663 0.00029157061363 0.00031726816087
          0.00032002490479 0.00031742799911 0.0003199459461 0.00033349005389 0.00031713722274 0.00034711443004
          0.00034562541987 0.00035449056304 0.00036863476271 0.00034403259633 0.00033377436921 0.00033688850817
          0.00032047668356 0.00034573927405 0.0003227739362 0.00034567163675 0.00034720846452 0.00034581252839
          0.00034562425571 0.00035736901918 0.00034555405728 0.00037108451943 0.00037676046486 0.00038244659663
          0.00039473068318 0.00037379935384 0.00036655479926 0.00036622115294 0.00035312448745 0.00037437691935
          0.00035396392923 0.0003743180132 0.00037474700366 0.00037444019108 0.00037179494393 0.00038190549822
          0.00037421405432 0.00039570138324 0.00040781631833 0.00041066663107 0.00042129162466 0.00040363511653
          0.00039907885366 0.00039566878695 0.00038552741171 0.00040320417611 0.0003850676876 0.0004031539429
          0.00040259576053 0.00040325766895 0.00039842361002 0.00040707766311 0.00040306386654 0.00042094246601
          0.00043872615788 0.00043910832028 0.00044828953105 0.00043348359759 0.00043126707897 0.00042517847032
          0.000417606876 0.00043217343045 0.00041601792327 0.00043213178287 0.00043071561959 0.00043221737724
          0.00042548179044 0.00043286968139 0.00043205588008 0.00044679100392 0.0004694290983 0.0004677355173
          0.00047570263268 0.00046329456381 0.00046304592979 0.00045470325858 0.00044929014985 0.00046124309301
          0.00044675328536 0.00046120997285 0.0004590737808 0.00046127775568 0.00045294716256 0.00045927200699
          0.00046114856377 0.00047323672334 0.00049987115199 0.00049651833251 0.00050351547543 0.00049302476691
          0.00049434875837 0.00048420304665 0.00048051134218 0.00049037823919 0.00047721920419 0.00049035350094
          0.00048764346866 0.00049040379236 0.00048080380657 0.00048628138029 0.00049030693481 0.0005002754624
          0.00053000362823 0.00052543514175 0.00053172116168 0.00052263581892 0.00052511342801 0.00051364343381
          0.00051120936405 0.0005195508711 0.0005073666689 0.00051953445654 0.00051640707534 0.00051956769312
          0.00050904421369 0.00051390368026 0.00051950290799 0.00052791257622 0.00055979128229 0.00055446737679
          0.00056031433633 0.00055210408755 0.00055529520614 0.00054300151533 0.00054133823141 0.00054873985937
          0.00053715903778 0.00054873217596 0.00054534798255 0.00054874760099 0.00053766329074 0.00054214475676
          0.00054871721659 0.00055615091696 0.00058919092407 0.00058361468837 0.00058931455715 0.00058139587054
          0.00058482657187 0.00057225493947 0.00057084683795 0.00057793664746 0.00056655670051 0.00057793402812
          0.00057446799474 0.00057793938322 0.00056667375611 0.00057103286963 0.00057792873122 0.00058502989123
          -1.93014057e-05 4.7934892791e-05 8.7295637059e-05 1.3076972209e-05 -4.5298889745e-05 1.2365396287e-05
          -6.8104964157e-05 2.1349129383e-05 -3.3927168261e-05 3.121948248e-05 6.055560516e-05 2.1335346901e-05
          8.7707536295e-05 0.00013025684166 4.2991392547e-05 0.00011024576088 3.6477649701e-06 -2.6852891096e-05
          -2.9063221518e-05 -6.0256832057e-07 -1.4037637811e-05 4.0063834604e-05 3.442164234e-05 -0.00021660495258
          -3.015902621e-06 0.00021039592684 0.00012378882093 -3.3723065371e-06 -0.00012974448327 -3.4081544982e-06
          -0.00012729575974 -3.4416223116e-06 -0.00021195301088 0.00020569526532 -2.994380111e-06 0.0001213587966
          -0.0001721270819 -1.8908646098e-06 0.00016840513854 0.00010228079191 -1.7950543452e-06 -0.00010601400572
          -1.7882634893e-06 -0.00010413922428 -1.7794030782e-06 -0.00017165207828 0.0001679356792 -1.8999866143e-06
          0.00010040422785 -0.00017925436259 -1.0029126543e-06 0.00017724525242 0.00010693645891 -1.01249816e-06
          -0.00010892036516 -1.0105815136e-06 -0.00010743293387 -1.0163660136e-06 -0.00017819432833 0.00017618463608
          -1.0000319435e-06 0.00010544808174 -0.00016737409169 -4.3449614395e-07 0.00016651727492 0.00010120126535
          -4.2060000283e-07 -0.00010203775309 -4.1905863668e-07 -0.00010116113117 -4.1957989083e-07 -0.00016686168965
          0.00016600487288 -4.3529104232e-07 0.00010032526188 -0.00020281755133 -1.1291717072e-07 0.00020260237216
          0.00012183158833 -1.01721227e-07 -0.00012202176003 -9.9257377428e-08 -0.00012159305334 -1.0196590949e-07
          -0.00020254787523 0.00020233269606 -1.1267275823e-07 0.0001214026197 0 0
          0 0 0 0 0 0
          0 0 0 0 0
        </DataArray>
        <DataArray type="Float32" Name="uz" format="ascii" RangeMin="-0.085715249181" RangeMax="0.08571818471">
          -0.014711132273 -0.01378690172 -0.013159902766 2.4093301576e-08 0.014710475691 0.013159480877
          0.013787040487 -0.014697154984 -0.014398752712 -0.0090644350275 2.4987889446e-07 0.014400980435
          0.014697203413 0.0090648587793 -0.01438373141 -0.0090651996434 0.014381577261 0.0090649425983
          -0.012064018287 -1.4790053626e-07 0.012064325623 -0.012064852752 0.012065919116 0.012069082819
          3.3708847269e-08 -0.012070441619 1.1072483375e-07 0.078970164061 0.068414621055 0.078983105719
          0.077946506441 0.067923046649 0.077947951853 0.064378038049 0.064074546099 0.070900328457
          0.070269316435 0.047319166362 0.044836584479 0.057873483747 0.047859370708 0.045496869832
          0.057879183441 0.036763358861 0.037869624794 0.057864833623 0.057878829539 0.051340769976
          0.051670722663 0.057883635163 0.057879384607 0.036755390465 0.037860009819 0.044811695814
          0.045474134386 0.057853251696 0.057849802077 0.070923559368 0.070292711258 0.079946316779
          0.068913407624 0.079956144094 0.064688153565 0.071505658329 0.046835962683 0.044237349182
          0.057880088687 0.035793889314 0.057872224599 0.051043558866 0.057887557894 0.035785134882
          0.04421127215 0.057856228203 0.071530781686 0.08083242923 0.069354884326 0.080843620002
          0.064960971475 0.07205311209 0.046395454556 0.043693240732 0.057880852371 0.034912828356
          0.057872783393 0.050771232694 0.057888980955 0.034903611988 0.043666336685 0.057856369764