<VTKFile type="UnstructuredGrid" version="1.0" byte_order="LittleEndian" header_type="UInt64">
  <UnstructuredGrid>
    <Piece NumberOfPoints="791" NumberOfCells="973">
      <PointData>
        <DataArray type="Float32" Name="ux" format="ascii" RangeMin="-1.9195380211" RangeMax="1.2864992619">
          0.25423946977 0.24169372022 0.23696936667 0.26046586037 0.26325920224 0.2429446727
          0.25201013684 0.24952189624 0.24547967315 0.24841436744 0.25391718745 0.26272141933
          0.2610154748 0.25518631935 0.24356436729 0.25698700547 0.25208088756 0.25926801562
          0.23354423046 0.25458624959 0.23910146952 0.2355697751 0.24383257329 0.22775426507
          0.25174471736 0.22715882957 0.25728634 -0.31486788392 -0.32402336597 -0.32701608539
          -0.06866414845 -0.06262730062 -0.062401778996 -0.31345665455 -0.068063497543 -0.30499890447
          -0.071486420929 -0.3229123354 -0.33618569374 -0.33111926913 -0.061030562967 -0.056557632983
          -0.058680135757 -0.32425579429 -0.060362413526 -0.32106140256 -0.06353983283 -0.31240680814
          -0.066477485001 -0.34111693501 -0.054147712886 -0.31253817677 -0.065984003246 -0.3035505712
          -0.070009946823 -0.30062669516 -0.072376206517 -0.33744543791 -0.055931281298 -0.51300579309
          -0.54446214437 -0.55162137747 -0.51217037439 -0.48643442988 -0.54462069273 -0.58054751158
          -0.56542909145 -0.55078351498 -0.53637897968 -0.5143020153 -0.59543287754 -0.51837420464
          -0.4924774766 -0.48042815924 -0.58364933729 -0.62850987911 -0.68318063021 -0.69680798054
          -0.62441593409 -0.58004915714 -0.68264758587 -0.74892318249 -0.71995669603 -0.69418215752
          -0.66794800758 -0.62809568644 -0.77382045984 -0.63629555702 -0.59012705088 -0.56768602133
          -0.75503259897 -0.64654970169 -0.72497832775 -0.74629837275 -0.6393238306 -0.57406336069
          -0.72721803188 -0.82557117939 -0.78087109327 -0.74768143892 -0.70363748074 -0.64323353767
          -0.85981696844 -0.65747451782 -0.58540844917 -0.55284917355 -0.82979303598 -0.5556358099
          -0.65727847815 -0.68655997515 -0.54358571768 -0.45878398418 -0.66066282988 -0.79369044304
          -0.73201906681 -0.68937569857 -0.6283107996 -0.54794114828 -0.83714854717 -0.56684708595
          -0.46896624565 -0.42763012648 -0.79722952843 -0.38720202446 -0.50713324547 -0.54371500015
          -0.36810174584 -0.26611641049 -0.50757348537 -0.66955733299 -0.59439253807 -0.54381978512
          -0.469604671 -0.37001261115 -0.71970915794 -0.39278519154 -0.27187630534 -0.22372995317
          -0.67119985819 -0.15069045126 -0.28172895312 -0.32388401031 -0.12511989474 -0.011153669097
          -0.28110805154 -0.46731734276 -0.37948060036 -0.32405728102 -0.23855771124 -0.12487887591
          -0.52244663239 -0.15047174692 -0.011591509916 0.042094688863 -0.46655493975 0.13624231517
          -0.018782457337 -0.070102214813 0.16900245845 0.30445420742 -0.018849268556 -0.24132375419
          -0.13513566554 -0.073028743267 0.032546516508 0.16946263611 -0.30302545428 0.13700282574
          0.30578875542 0.36963805556 -0.23667934537 0.42221915722 0.24018280208 0.18103979528
          0.46059399843 0.61936324835 0.2356583178 -0.024254864082 0.10293400288 0.1707174629
          0.29927608371 0.45969477296 -0.092944733799 0.41807666421 0.62029546499 0.69668841362
          -0.014427405782 0.64599108696 0.44466567039 0.37844452262 0.68862259388 0.86614185572
          0.43977490067 0.1504534632 0.29217675328 0.3670001626 0.51154011488 0.68858259916
          0.074361242354 0.64189726114 0.86698007584 0.95184093714 0.16236518323 0.81057780981
          0.58784544468 0.51500844955 0.85803049803 1.0544755459 0.58235549927 0.26242551208
          0.41912859678 0.50201690197 0.66147208214 0.85821282864 0.17930415273 0.80733716488
          1.0581576824 1.1510314941 0.27547758818 0.90304583311 0.66557359695 0.58634841442
          0.95601981878 1.1657390594 0.65978395939 0.31355255842 0.48398280144 0.57134836912
          0.74418514967 0.95633226633 0.2237547785 0.90141481161 1.1716498137 1.2717746496
          0.32922291756 0.89472025633 0.64326786995 0.55790907145 0.95174270868 1.1747069359
          0.64002984762 0.27578258514 0.45264223218 0.549007833 0.72806107998 0.95236825943
          0.17867472768 0.89492064714 1.1792589426 1.2864992619 0.28700807691 0.78061157465
          0.51688832045 0.42739158869 0.83868378401 1.0715930462 0.51383501291 0.13686351478
          0.31908982992 0.41938379407 0.60536921024 0.83793962002 0.034009013325 0.77717769146
          1.0715702772 1.1842204332 0.14456693828 0.55353343487 0.28356519341 0.1925662607
          0.61061787605 0.84833860397 0.27973136306 -0.10156384856 0.081594027579 0.18476557732
          0.37356668711 0.60794049501 -0.20871587098 0.54578316212 0.84319376945 0.96018028259
          -0.097120441496 0.23465026915 -0.037437926978 -0.13017991185 0.29308313131 0.53265178204
          -0.039220966399 -0.42460095882 -0.24073082209 -0.1341253072 0.053314637393 0.29168736935
          -0.53378522396 0.22972126305 0.52984589338 0.64552241564 -0.42241439223 -0.1638648957
          -0.44266143441 -0.53707462549 -0.10465422273 0.13974821568 -0.44345295429 -0.83640623093
          -0.65043073893 -0.5384452343 -0.34921479225 -0.10642893612 -0.95005911589 -0.1665661484
          0.13708917797 0.25528219342 -0.83627378941 -0.62316018343 -0.91055554152 -1.0067833662
          -0.56445139647 -0.31381323934 -0.91247719526 -1.3178808689 -1.1251597404 -1.0101728439
          -0.81529408693 -0.5651704669 -1.4344631433 -0.6263820529 -0.31525492668 -0.19556356966
          -1.3157659769 -1.1067519188 -1.3943506479 -1.4912395477 -1.0467857122 -0.79578155279
          -1.3937190771 -1.8013675213 -1.6090509892 -1.4904965162 -1.2981750965 -1.0460594893
          -1.9195380211 -1.1052625179 -0.79503190517 -0.67615431547 -1.8009949923 0.22336882353
          0.20482689142 0.24156847596 0.17866978049 0.188329041 0.14325800538 0.14976425469
          0.18282717466 0.11327482015 0.17039678991 0.14332862198 0.19579312205 0.10132240504
          0.1152427271 0.1486454159 0.23065014184 0.21481087804 0.21633130312 0.19226592779
          0.23419137299 0.21781085432 0.18659006059 0.20115841925 0.19333918393 0.20096717775
          0.20508809388 0.18049365282 0.18223942816 0.18473514915 0.19045199454 0.17786860466
          0.18222300708 0.1767257154 0.19819903374 0.20914179087 0.20633073151 0.17773814499
          0.17928415537 0.18146359921 0.19911684096 0.17595399916 0.19730113447 0.17966400087
          0.18937666714 0.17629569769 0.21521750093 0.18373639882 0.18875592947 0.17418505251
          0.18064367771 0.17357157171 0.17763586342 0.17441645265 0.2134668678 0.18625125289
          0.15643325448 0.15241409838 0.15234567225 0.15614019334 0.16028405726 0.1495719105
          0.14315980673 0.14840191603 0.14602416754 0.15229091048 0.15540409088 0.14335507154
          0.1527222693 0.15918639302 0.16178077459 0.14768268168 0.10917046666 0.10744554549
          0.1087263003 0.10924380273 0.11030739546 0.10525122285 0.10026162118 0.10441858321
          0.10243804753 0.10735168308 0.10961330682 0.10322597623 0.10871448368 0.11259302497
          0.11165650934 0.10652174801 0.068194933236 0.071892403066 0.075201921165 0.065332919359
          0.06096547097 0.069146484137 0.072755560279 0.073418959975 0.069974817336 0.06926330924
          0.065262377262 0.076471753418 0.06629896909 0.061767626554 0.059874206781 0.078573279083
          0.059460148215 0.064283363521 0.068183243275 0.05629715696 0.051946349442 0.061920046806
          0.068411409855 0.066948696971 0.062925592065 0.061210777611 0.055016238242 0.071222297847
          0.05579906702 0.050392970443 0.049625139683 0.071419090033 0.070653431118 0.071227818727
          0.0716586411 0.069285266101 0.07006777823 0.070285350084 0.074904315174 0.072978436947
          0.070327311754 0.070196121931 0.067427061498 0.076016023755 0.064814180136 0.063438586891
          0.066124767065 0.074181012809 0.058579508215 0.060617450625 0.062005680054 0.055488102138
          0.053709253669 0.060416057706 0.072418890893 0.066179014742 0.062220558524 0.058622065932
          0.052247744054 0.073912210763 0.049848049879 0.043673757464 0.046928904951 0.068179503083
          0.013981772587 0.016021449119 0.017038205639 0.010447767563 0.0096097299829 0.014066453092
          0.025349413976 0.019536778331 0.0160975568 0.012848611921 0.006732809823 0.025916127488
          0.0040676561184 -0.00078471994493 0.0022574278992 0.021340757608 -0.040257491171 -0.032129425555
          -0.028628926724 -0.044154018164 -0.051572341472 -0.034477643669 -0.018720163032 -0.025843013078
          -0.030943039805 -0.036080807447 -0.046102777123 -0.01572310552 -0.04538230598 -0.055870827287
          -0.0577868931 -0.019930033013 -0.095597676933 -0.077092058957 -0.070868812501 -0.09959320724
          -0.11493109167 -0.078108370304 -0.050079956651 -0.063726603985 -0.072104044259 -0.084460996091
          -0.099988631904 -0.041508480906 -0.096116147935 -0.1146979779 -0.12302655727 -0.049763947725
          -0.14143832028 -0.12071409076 -0.11247613281 -0.14585521817 -0.16488200426 -0.12255002558
          -0.095160871744 -0.10694100708 -0.11614955962 -0.12789000571 -0.14611823857 -0.085566051304
          -0.14236231148 -0.1636736244 -0.1736779362 -0.092018410563 -0.17685948312 -0.16616883874
          -0.16110575199 -0.17933872342 -0.190239802 -0.16766008735 -0.15763171017 -0.16070656478
          -0.16518945992 -0.16962906718 -0.17833684385 -0.15185181797 -0.17484107614 -0.18589353561
          -0.19330497086 -0.15158566833 -0.1832318455 -0.19013084471 -0.19055098295 -0.18261417747
          -0.17851035297 -0.19163426757 -0.20480011404 -0.19698096812 -0.19399225712 -0.18802706897
          -0.18171308935 -0.20575787127 -0.18021452427 -0.17335252464 -0.17421476543 -0.19877885282
          -0.15467622876 -0.17470511794 -0.17841434479 -0.15052169561 -0.13599601388 -0.17617380619
          -0.21035268903 -0.19206283987 -0.18394422531 -0.16838549078 -0.14937390387 -0.21647569537
          -0.15112479031 -0.12899969518 -0.12530677021 -0.2030133456 -0.091578103602 -0.12406601757
          -0.13290083408 -0.084590964019 -0.057725030929 -0.12514221668 -0.17413520813 -0.14951480925
          -0.13610561192 -0.11354362965 -0.083276450634 -0.1854108125 -0.088059350848 -0.051608897746
          -0.041785731912 -0.16816070676 -0.0018210824346 -0.040983885527 -0.0532274656 0.0072360346094
          0.040686052293 -0.038665544242 -0.10035985708 -0.070878252387 -0.051554370672 -0.026437647641
          0.010251882486 -0.11702209711 0.0051721944474 0.047655817121 0.060522917658 -0.097603924572
          0.12044837326 0.071073353291 0.054994724691 0.13069801033 0.17366844416 0.072466552258
          0.000616933743 0.033986020833 0.056753415614 0.088651180267 0.13261298835 -0.021051120013
          0.12448658794 0.17721016705 0.19479256868 0.00081332295667 0.26368546486 0.20788449049
          0.18886162341 0.27576941252 0.32372057438 0.20894864202 0.12753927708 0.16585125029
          0.19050738215 0.22747333348 0.27743858099 0.10475353152 0.26710292697 0.3267172873
          0.34846049547 0.12798707187 0.40676662326 0.34693706036 0.3274217546 0.41958093643
          0.47043144703 0.34686619043 0.26258593798 0.30224367976 0.3276321888 0.36711764336
          0.41912797093 0.23788586259 0.40676093102 0.47081744671 0.49539333582 0.26161170006
          0.20619241893 0.21510703862 0.22257056832 0.20115426183 0.19257387519 0.21040771902
          0.22201414406 0.2198023349 0.21049022675 0.2096850723 0.1993560046 0.2303647548
          0.19870753586 0.18983212113 0.18717421591 0.23102200031 0.22098729014 0.22393122315
          0.21313504875 0.23155473173 0.2220274061 0.20750051737 0.21330818534 0.1569737047
          0.1435341686 0.1595416218 0.20341952145 0.19612371922 0.19806438684 0.23102363944
          0.2599849999 0.26601791382 0.30624240637 0.30260270834 0.32263067365 0.25424355268
          0.053132891655 0.029238866642 0.05387289077 0.11860327423 0.10781841725 0.11560480297
          0.15665242076 0.19715783 0.20492087305 0.25911316276 0.25599530339 0.2812641561
          0.19368219376 -0.039223149419 -0.064198315144 -0.039815060794 0.025665029883 0.014775689691
          0.024733001366 0.063773423433 0.10470311344 0.11118534952 0.16457891464 0.16172376275
          0.18595381081 0.10084669292 -0.08455311507 -0.10667751729 -0.086264878511 -0.029316721484
          -0.039812549949 -0.029744859785 0.0011682669865 0.036795694381 0.040018998086 0.084484308958
          0.080761253834 0.10173004121 0.032225530595 -0.071466222405 -0.082411371171 -0.068181149662
          -0.03452821821 -0.043384902179 -0.040703807026 -0.017893159762 0.007027158048 0.0078862272203
          0.036240018904 0.033226892352 0.046511288732 -0.00034389158827 -7.8196810138e-11 1.3979657709e-10
          -1.3738185589e-10 2.2182663692e-11 6.0822701042e-11 5.7320745372e-12 -5.7480869023e-12 5.8710837841e-13
          -1.7246897354e-15 0 0 0 -5.0822063571e-13
        </DataArray>
        <DataArray type="Float32" Name="uy" format="ascii" RangeMin="-1.343503952" RangeMax="1.7575122118">
          0.08117043227 0.1034925878 0.11028388888 0.086449950933 0.096695013344 0.11342231184
          0.1064735204 0.080424726009 0.099385254085 0.086200729012 0.084979273379 0.098601207137
          0.095183879137 0.093211308122 0.099729381502 0.089031331241 0.10592055321 0.09632666409
          0.12268242985 0.098866946995 0.11991109699 0.1216667667 0.11826152354 0.12195512652
          0.10130369663 0.12064952403 0.08351675421 0.36095255613 0.35164198279 0.361086905
          0.20970202982 0.21372331679 0.20843183994 0.34736579657 0.21508020163 0.35374882817
          0.21419943869 0.33053380251 0.32643148303 0.34143790603 0.22150059044 0.22343690693
          0.2181186378 0.31917387247 0.22561065853 0.34104701877 0.21695160866 0.33464619517
          0.21918100119 0.34085029364 0.21847440302 0.32064583898 0.22546057403 0.32893106341
          0.22262363136 0.34160712361 0.218569085 0.35487416387 0.21182590723 0.52248966694
          0.49671220779 0.52630364895 0.48458370566 0.49787044525 0.44163519144 0.43237236142
          0.46836838126 0.41433846951 0.4686588943 0.45221275091 0.46800968051 0.41705614328
          0.43698823452 0.46597740054 0.50548118353 0.64960056543 0.60274344683 0.65594106913
          0.5792658329 0.60580170155 0.50331676006 0.48833307624 0.55261975527 0.45522472262
          0.55188959837 0.521081388 0.55122762918 0.45827493072 0.49139904976 0.54567372799
          0.61678546667 0.69154047966 0.62192058563 0.69814783335 0.589605093 0.62837278843
          0.47554132342 0.45380294323 0.54811239243 0.40309721231 0.54791128635 0.502399683
          0.54481309652 0.40575870872 0.45744332671 0.53980058432 0.64125949144 0.61691325903
          0.52219808102 0.62312304974 0.48185831308 0.53627079725 0.32637441158 0.29827085137
          0.42264020443 0.2291174978 0.42357376218 0.36371436715 0.41907280684 0.23238147795
          0.30369737744 0.41760566831 0.54573571682 0.42170214653 0.30636104941 0.42598628998
          0.2584092319 0.32759711146 0.071404367685 0.04082692042 0.1886909008 -0.046455580741
          0.18810208142 0.11548077315 0.18773195148 -0.044704329222 0.043930914253 0.18348228931
          0.3355756104 0.16404674947 0.031825602055 0.16715739667 -0.022030076012 0.059453964233
          -0.23920473456 -0.27145856619 -0.10252855718 -0.37397900224 -0.1042599231 -0.1884470135
          -0.10246771574 -0.37331548333 -0.27120879292 -0.10725735128 0.066090524197 -0.071423485875
          -0.22977386415 -0.070347540081 -0.29156515002 -0.19343547523 -0.54858905077 -0.58314299583
          -0.38740190864 -0.70815557241 -0.38914296031 -0.48901942372 -0.38356798887 -0.71025830507
          -0.58770769835 -0.39056298137 -0.18908828497 -0.26011478901 -0.446608603 -0.26059925556
          -0.51772677898 -0.39959862828 -0.82036703825 -0.85825538635 -0.63127845526 -1.0075404644
          -0.63335883617 -0.74952441454 -0.62636369467 -1.0115160942 -0.86756372452 -0.63172835112
          -0.40032535791 -0.38251021504 -0.58860915899 -0.38223585486 -0.66924756765 -0.53971731663
          -1.0044839382 -1.0465414524 -0.7929161191 -1.2130894661 -0.79757779837 -0.92782282829
          -0.78693407774 -1.2183439732 -1.0584851503 -0.7978245616 -0.53538179398 -0.41064941883
          -0.63999670744 -0.41203701496 -0.72751307487 -0.58267974854 -1.1010909081 -1.147544384
          -0.86680012941 -1.3322949409 -0.87008196115 -1.0150862932 -0.8604131341 -1.3390672207
          -1.1606380939 -0.86827260256 -0.58218747377 -0.33976072073 -0.58680266142 -0.34223538637
          -0.68213379383 -0.5244550705 -1.0866025686 -1.1368836164 -0.83284068108 -1.3370021582
          -0.83597707748 -0.99314987659 -0.82565283775 -1.343503952 -1.1505768299 -0.83458650112
          -0.52554064989 -0.14342191815 -0.40700677037 -0.14670613408 -0.50704866648 -0.34015843272
          -0.93448668718 -0.98751115799 -0.66671651602 -1.1979577541 -0.67070603371 -0.83691424131
          -0.66077560186 -1.2054041624 -1.0042718649 -0.67027676105 -0.34249347448 0.15006838739
          -0.12306861579 0.14729447663 -0.22745269537 -0.056378632784 -0.66796088219 -0.72480851412
          -0.39321875572 -0.93976938725 -0.39586374164 -0.56735110283 -0.38827636838 -0.94769579172
          -0.74009132385 -0.39774292707 -0.058327820152 0.4799246788 0.20026056468 0.47826772928
          0.093805767596 0.26735800505 -0.35505399108 -0.41470521688 -0.076137982309 -0.63059127331
          -0.078132018447 -0.25262126327 -0.073508359492 -0.6373410821 -0.42808103561 -0.081313669682
          0.26663884521 0.80531722307 0.52421224117 0.80392217636 0.41626256704 0.59025400877
          -0.03511666134 -0.098126582801 0.24502138793 -0.31399604678 0.24312323332 0.068333104253
          0.24670024216 -0.31892845035 -0.1076400876 0.24021959305 0.58951508999 1.1344116926
          0.84668844938 1.1323540211 0.73720765114 0.91515088081 0.27508178353 0.20990328491
          0.56134694815 -0.010079247877 0.56046295166 0.38196924329 0.56195920706 -0.014072390273
          0.20253659785 0.55758732557 0.91304278374 1.4568405151 1.1621726751 1.4561072588
          1.0496749878 1.2310283184 0.57434564829 0.50594907999 0.86816334724 0.28104332089
          0.86869138479 0.68642932177 0.86784076691 0.27946504951 0.50353240967 0.86737626791
          1.2312560081 1.7574799061 1.4630389214 1.7575122118 1.3491399288 1.5315618515
          0.87250876427 0.80295616388 1.1681970358 0.57716542482 1.1669294834 0.98514157534
          1.1686447859 0.57659000158 0.80208444595 1.166118145 1.5326651335 0.084951877594
          0.10719159991 0.080746456981 0.11769990623 0.1048887521 0.15348654985 0.16180017591
          0.13152584434 0.17684417963 0.13075725734 0.14460664988 0.13149450719 0.17288568616
          0.15598668158 0.1315421164 0.09943343699 0.13715924323 0.14193660021 0.15583087504
          0.12157690525 0.13096006215 0.1521936059 0.13933856785 0.20970982313 0.19747298956
          0.20692768693 0.17068934441 0.16729311645 0.16885842383 0.19584155083 0.16862936318
          0.20295505226 0.1708855927 0.17684006691 0.17202174664 0.18578134477 0.16461659968
          0.16185820103 0.16444094479 0.16666427255 0.16311489046 0.18753045797 0.16651730239
          0.18202099204 0.16706682742 0.18352763355 0.1624597311 0.16899806261 0.16512189806
          0.17718562484 0.16775240004 0.1898278445 0.1697922796 0.19764120877 0.16505688429
          0.12849853933 0.13138963282 0.12791530788 0.13369750977 0.13156612217 0.14122317731
          0.13989391923 0.13490669429 0.14553590119 0.13645245135 0.13974383473 0.13410076499
          0.1471414417 0.14448945224 0.13721077144 0.12956112623 0.093250498176 0.092176191509
          0.092140324414 0.093826375902 0.093622133136 0.094234406948 0.092993922532 0.091338299215
          0.098063901067 0.093075685203 0.094730205834 0.089778058231 0.098497025669 0.096149079502
          0.094565376639 0.089814804494 0.024573719129 0.017593592405 0.022591300309 0.017060663551
          0.020757449791 0.010225136764 0.0079865287989 0.012480223551 0.0073471087962 0.013766922057
          0.011603311636 0.0093637173995 0.0074151256122 0.0086872922257 0.013255775906 0.015750197694
          -0.10645909607 -0.1131593585 -0.1086840108 -0.11413962394 -0.11093015969 -0.11980193108
          -0.12122888863 -0.11673422158 -0.12463501096 -0.11682567745 -0.11829160154 -0.11782440543
          -0.12379704416 -0.1205027774 -0.1153671667 -0.11322897673 -0.25663936138 -0.25914305449
          -0.25709944963 -0.25815099478 -0.25471115112 -0.26373809576 -0.26390719414 -0.26156541705
          -0.26679852605 -0.26123863459 -0.26068615913 -0.26037871838 -0.2649666965 -0.25994998217
          -0.25501203537 -0.25787594914 -0.31686782837 -0.32207471132 -0.31750419736 -0.32207217813
          -0.31638044119 -0.33553269506 -0.33727747202 -0.32870098948 -0.34433573484 -0.32771363854
          -0.32916668057 -0.32571732998 -0.34045425057 -0.32975941896 -0.31931990385 -0.31846728921
          -0.27310454845 -0.27679377794 -0.27358520031 -0.27703484893 -0.27228915691 -0.28719472885
          -0.28820043802 -0.2809407413 -0.29513937235 -0.28083369136 -0.283023417 -0.27897918224
          -0.29329696298 -0.28395169973 -0.27604004741 -0.27451708913 -0.14428773522 -0.15431663394
          -0.14535780251 -0.15780964494 -0.14996744692 -0.17368936539 -0.17454610765 -0.16322797537
          -0.18378603458 -0.16398876905 -0.16977699101 -0.16098541021 -0.18341043591 -0.17460250854
          -0.1615370363 -0.15080280602 0.045405555516 0.026740510017 0.046320337802 0.017670243979
          0.029647005722 -0.013191842474 -0.017463507131 0.0070435851812 -0.032594803721 0.0059680626728
          -0.0064556747675 0.0083401156589 -0.032028444111 -0.017431359738 0.0057740556076 0.032903131098
          0.2325951606 0.21058344841 0.23131495714 0.2015286386 0.2148719728 0.1673913002
          0.16262708604 0.18884061277 0.14727787673 0.18816049397 0.17402143776 0.18745493889
          0.14557695389 0.15947397053 0.18536140025 0.21328897774 0.35691195726 0.34352096915
          0.3541110456 0.34021508694 0.34760558605 0.32294228673 0.31978461146 0.33131608367
          0.31500655413 0.33268281817 0.32590681314 0.32826563716 0.31290307641 0.31701368093
          0.33052033186 0.34159976244 0.39071586728 0.39655002952 0.38926205039 0.39915528893
          0.39437347651 0.41059195995 0.40997469425 0.40210345387 0.419064641 0.40377494693
          0.40695849061 0.39828693867 0.41762635112 0.40841177106 0.39985916018 0.39084175229
          0.34291055799 0.36119163036 0.3413618207 0.36846074462 0.35516873002 0.40288841724
          0.40623065829 0.38051271439 0.42636322975 0.38095158339 0.39241987467 0.37702065706
          0.42410597205 0.40367504954 0.37690001726 0.35305100679 0.2169110775 0.24884857237
          0.21637295187 0.26056137681 0.23854717612 0.31539323926 0.32204782963 0.2803786695
          0.35092589259 0.28090956807 0.30094251037 0.27805390954 0.34976994991 0.32034018636
          0.27740600705 0.2389267236 0.032480154186 0.073484741151 0.032095104456 0.088925085962
          0.062354739755 0.1608273685 0.1708060056 0.1157194823 0.2066911757 0.11594769359
          0.14257107675 0.11323337257 0.20344677567 0.16702611744 0.11246406287 0.061155434698
          -0.2172909677 -0.16651341319 -0.21808561683 -0.14793895185 -0.17970283329 -0.063171796501
          -0.050220515579 -0.11520370096 -0.010233810171 -0.11486189067 -0.08417981863 -0.11600542068
          -0.012347036041 -0.054619498551 -0.11870508641 -0.17969164252 -0.51253813505 -0.45655322075
          -0.51285648346 -0.43441957235 -0.46885201335 -0.34160622954 -0.3273819387 -0.39975276589
          -0.28244709969 -0.39934119582 -0.36375239491 -0.40020021796 -0.28235661983 -0.32822582126
          -0.39897787571 -0.47010719776 -0.7993375659 -0.73823660612 -0.79913723469 -0.71522635221
          -0.75336199999 -0.6175096035 -0.60268002748 -0.67757403851 -0.55677700043 -0.67793375254
          -0.64055353403 -0.67647695541 -0.55673921108 -0.60279101133 -0.67763274908 -0.75218075514
          0.1888550818 0.17883954942 0.18813125789 0.17645668983 0.18184229732 0.16581699252
          0.16283001006 0.17060884833 0.1607747525 0.17155402899 0.16865490377 0.16909505427
          0.16173756123 0.16505655646 0.17287017405 0.17945988476 0.13751274347 0.14159102738
          0.15189346671 0.12132813781 0.13134784997 0.15083616972 0.14017367363 0.071628957987
          0.01992324926 -0.030697187409 -0.064073942602 0.020712153986 0.10559976101 0.021139901131
          -0.064755998552 0.021545151249 -0.031240031123 0.077124483883 0.023741098121 0.10783226043
          0.061779074371 -0.01065138448 -0.084931530058 -0.13100841641 -0.011350011453 0.10675567389
          -0.010730148293 -0.13053506613 -0.011062398553 -0.083581089973 0.06330589205 -0.010166277178
          0.10753050447 0.036537092179 -0.038687307388 -0.1127082929 -0.1585444212 -0.038180071861
          0.081083893776 -0.038326706737 -0.15636983514 -0.037776079029 -0.10999485105 0.034214992076
          -0.037942908704 0.079479344189 0.020771438256 -0.041896633804 -0.10485430062 -0.14277471602
          -0.042167823762 0.056769896299 -0.042636275291 -0.13959389925 -0.042388919741 -0.10100163519
          0.015901602805 -0.041721254587 0.053736165166 0.0092903478071 -0.027293501422 -0.064390733838
          -0.08531306684 -0.026335636154 0.033177100122 -0.025829657912 -0.083804570138 -0.026094825938
          -0.060655906796 0.0089145712554 -0.026031916961 0.032169442624 8.4573095055e-12 4.2087298924e-11
          2.9657246711e-12 8.44148796e-12 1.2747767252e-11 -4.5392318376e-12 3.1955159005e-12 1.370078313e-12
          -2.093783961e-14 0 0 0 -4.1796378641e-13
        </DataArray>
        <DataArray type="Float32" Name="uz" format="ascii" RangeMin="-0.30610600114" RangeMax="0.43042248487">
          0.043196458369 0.025730388239 0.045060303062 0.056772448123 0.065623536706 0.072889178991
          0.054240148515 0.022587135434 -0.0037572602741 0.013019043952 0.03362096101 0.033856328577
          0.047087326646 0.027171831578 0.062058188021 0.063986234367 0.090227633715 0.076577395201
          0.012235663831 0.014140547253 0.042792003602 -0.0063405833207 0.025754095986 0.091793969274
          0.076738856733 0.066010914743 0.045724608004 0.42454603314 0.33092623949 0.38321769238
          0.42225152254 0.32967352867 0.38741326332 0.34462624788 0.33777475357 0.4118283093
          0.40202015638 0.20904332399 0.14746084809 0.2468302846 0.20447297394 0.14905847609
          0.24602822959 0.13368038833 0.13104435802 0.28055790067 0.27550408244 0.26997557282
          0.26113858819 0.21092654765 0.21662567556 0.17740315199 0.16904139519 0.25986379385
          0.24597269297 0.3489575088 0.33450868726 0.301348418 0.30822357535 0.38765749335
          0.31636035442 0.35364809632 0.32873806357 0.38083586097 0.22391887009 0.17356276512
          0.25048774481 0.16764061153 0.27836439013 0.27230536938 0.21980933845 0.20354697108
          0.26714470983 0.33460304141 0.28967615962 0.32122784853 0.2902084291 0.30950787663
          0.29111656547 0.31334155798 0.24448120594 0.22440461814 0.26059696078 0.21811139584
          0.27010095119 0.26323914528 0.24852028489 0.23107790947 0.2575699687 0.28853523731
          0.28200823069 0.23474487662 0.2573299408 0.2567730546 0.23788015544 0.22050993145
          0.26487010717 0.29062640667 0.27467161417 0.27452635765 0.25558704138 0.24228794873
          0.29313451052 0.25159990788 0.22988530993 0.21784904599 0.27977150679 0.14933185279
          0.2264918834 0.21145051718 0.18238534033 0.12211274356 0.28610828519 0.36024823785
          0.29088523984 0.33352720737 0.24117061496 0.21915321052 0.3415915668 0.27073797584
          0.19719929993 0.14046855271 0.28476470709 0.080689415336 0.19901123643 0.1701348871
          0.13829053938 0.046517498791 0.30198985338 0.41197672486 0.30019620061 0.37828856707
          0.22784371674 0.2019764483 0.37534400821 0.28683325648 0.17365472019 0.082668475807
          0.2825602293 0.035753209144 0.17634747922 0.13443724811 0.11201405525 0.0046663964167
          0.30709323287 0.43042248487 0.29707860947 0.39984801412 0.21684700251 0.19217762351
          0.37872365117 0.29877379537 0.16728171706 0.055325381458 0.26492974162 0.019046492875
          0.16135460138 0.11166779697 0.10416496545 -0.0015747697325 0.30022278428 0.41683620214
          0.28364697099 0.39497345686 0.20843151212 0.18943397701 0.35908389091 0.30078473687
          0.17245292664 0.057309374213 0.24196475744 0.029530707747 0.1473620981 0.10002568364
          0.10679122061 0.020224001259 0.27271813154 0.36434906721 0.25041010976 0.3540648818
          0.19253253937 0.18370403349 0.30814564228 0.28116941452 0.17505420744 0.075663521886
          0.20671677589 0.052466772497 0.1311686039 0.094130069017 0.11107121408 0.053732406348
          0.22617994249 0.28091314435 0.20090165734 0.2845210433 0.16824126244 0.16972728074
          0.23334264755 0.24238274992 0.17148426175 0.099058821797 0.16199579835 0.077566802502
          0.11396472156 0.084458954632 0.11933396012 0.095165103674 0.17419157922 0.18888217211
          0.14709216356 0.2072853297 0.14193984866 0.15709899366 0.15324506164 0.20043621957
          0.17177505791 0.13140073419 0.11322789639 0.11830250919 0.1009805277 0.083484247327
          0.13542431593 0.15267278254 0.11735782027 0.083932586014 0.089891895652 0.11861441284
          0.11760996282 0.14600595832 0.062419120222 0.15284784138 0.17453177273 0.17459787428
          0.062425680459 0.16821062565 0.093297109008 0.09342777729 0.15326468647 0.21507397294