<VTKFile type="UnstructuredGrid" version="1.0" byte_order="LittleEndian" header_type="UInt64">
  <UnstructuredGrid>
    <Piece NumberOfPoints="791" NumberOfCells="973">
      <PointData>
        <DataArray type="Float32" Name="ux" format="ascii" RangeMin="-0.80391860008" RangeMax="1.3832433224">
          -0.0038227362093 0.025134297088 -0.014338494278 -0.010020640679 -0.0058454181999 -0.01518436987
          0.025353010744 0.034442212433 0.079041428864 0.065200358629 0.037549998611 0.078636653721
          0.032571144402 0.065465688705 -0.047229271382 -0.035944599658 -0.049776524305 -0.037122167647
          0.04825341329 0.078880578279 0.051272079349 0.083764284849 0.087889507413 -0.058317713439
          -0.048558052629 -0.05732569471 0.013358641416 -0.01320515573 0.037248771638 0.052432768047
          0.0022351271473 0.051471397281 0.067239634693 -0.021064287052 -0.0063384198584 -0.063832126558
          -0.048584509641 0.037029407918 0.10563629121 0.0741032511 0.050295129418 0.11598195136
          0.086542733014 0.051886491477 0.064634941518 0.021530101076 0.03512037918 -0.020346930251
          -0.0056827627122 0.1273637563 0.13793928921 -0.011819492094 0.0039080544375 -0.061713568866
          -0.04491879046 -0.081517420709 -0.065738089383 0.1067109257 0.11951164156 -0.072605535388
          -0.021713016555 -0.0061978842132 -0.080880403519 -0.12410055101 -0.021827261895 0.048697799444
          0.015765558928 -0.0064081628807 -0.037752594799 -0.080931827426 0.070109575987 -0.072372399271
          -0.12386773527 -0.14352011681 0.04866470769 -0.17073735595 -0.12019908428 -0.10476384312
          -0.17998813093 -0.22325846553 -0.11941858381 -0.047368850559 -0.081896923482 -0.10286278278
          -0.13632179797 -0.18035836518 -0.027235748246 -0.17119590938 -0.22478093207 -0.24402230978
          -0.049776017666 -0.29138922691 -0.24408560991 -0.22889733315 -0.30236923695 -0.34303754568
          -0.24423739314 -0.17260596156 -0.20733821392 -0.22745653987 -0.26043757796 -0.30404937267
          -0.1540119499 -0.29582476616 -0.34855422378 -0.36584454775 -0.17663282156 -0.42091923952
          -0.38312807679 -0.37072992325 -0.43081644177 -0.46371600032 -0.38289579749 -0.32229787111
          -0.35244688392 -0.36768525839 -0.39656886458 -0.43305447698 -0.30818477273 -0.42612463236
          -0.471116364 -0.48412322998 -0.32822623849 -0.55015879869 -0.52067315578 -0.51127302647
          -0.55884230137 -0.58496958017 -0.51978993416 -0.47093528509 -0.49616348743 -0.50695043802
          -0.53107625246 -0.56097042561 -0.46126148105 -0.55504214764 -0.59246039391 -0.60260677338
          -0.47794872522 -0.67478764057 -0.65268737078 -0.64469027519 -0.68235784769 -0.70240879059
          -0.6512363553 -0.61345666647 -0.63368535042 -0.64051604271 -0.66084229946 -0.68397247791
          -0.60726094246 -0.67856329679 -0.7088304162 -0.71714806557 -0.61997318268 -0.76201504469
          -0.75160819292 -0.74618595839 -0.76804715395 -0.77902978659 -0.75124460459 -0.73085749149
          -0.74212574959 -0.74435406923 -0.75674974918 -0.76938986778 -0.72835355997 -0.76524454355
          -0.78336161375 -0.78830069304 -0.73440271616 -0.79523772001 -0.79524284601 -0.79258495569
          -0.79864537716 -0.80060523748 -0.79479408264 -0.79184901714 -0.79438841343 -0.7920153141
          -0.79661124945 -0.79909694195 -0.79322975874 -0.79601705074 -0.80184096098 -0.80391860008
          -0.79299908876 -0.76537263393 -0.77118426561 -0.76997059584 -0.76761680841 -0.76469254494
          -0.77088886499 -0.7776132822 -0.7752225399 -0.76995903254 -0.77042144537 -0.76738804579
          -0.78097569942 -0.76505494118 -0.76490676403 -0.76529186964 -0.7770562768 -0.66322767735
          -0.67271953821 -0.67291104794 -0.66473221779 -0.65868014097 -0.67319893837 -0.68506401777
          -0.67984610796 -0.67367571592 -0.67102211714 -0.66461777687 -0.68967759609 -0.66338098049
          -0.65816497803 -0.65739870071 -0.68399226665 -0.49230504036 -0.50611412525 -0.50905054808
          -0.49132114649 -0.48051422834 -0.50605601072 -0.52637517452 -0.51696878672 -0.50896209478
          -0.50235003233 -0.49107593298 -0.5330504179 -0.49133235216 -0.47959953547 -0.47602033615
          -0.52534174919 -0.26851895452 -0.28806892037 -0.29350569844 -0.26569014788 -0.24944990873
          -0.28751718998 -0.31525966525 -0.30275470018 -0.29279106855 -0.28204953671 -0.26554900408
          -0.32417827845 -0.2676769793 -0.24892354012 -0.24204351008 -0.31543123722 -0.011199539527
          -0.035853870213 -0.043565385044 -0.0067461309955 0.014511184767 -0.034896817058 -0.069270469248
          -0.053731229156 -0.041841913015 -0.027722235769 -0.0060460874811 -0.080449379981 -0.0098488610238
          0.015032222494 0.02407296747 -0.070349171758 0.26816752553 0.23766444623 0.227214396
          0.27409732342 0.30045923591 0.2385160774 0.19662231207 0.21570077538 0.22926881909
          0.24803492427 0.27388396859 0.18313214183 0.26810511947 0.29938045144 0.31200113893
          0.19466589391 0.55508047342 0.51984041929 0.50723999739 0.56223714352 0.59306120872
          0.52050155401 0.47255936265 0.49443203211 0.50938898325 0.53185987473 0.56133157015
          0.45714613795 0.55336374044 0.58995908499 0.60585540533 0.46964332461 0.82665884495
          0.78757578135 0.77347958088 0.83515542746 0.86980736256 0.78742074966 0.73304229975
          0.75847446918 0.77416831255 0.80060106516 0.83452010155 0.7164799571 0.82532674074
          0.8682051897 0.88542944193 0.73120218515 1.0775581598 1.0350837708 1.0200339556
          1.0870623589 1.1247538328 1.0351778269 0.97510325909 1.0033835173 1.020395875
          1.0494990349 1.086938262 0.95766311884 1.077709198 1.1244871616 1.1424534321
          0.97466671467 1.3177690506 1.2735049725 1.2588181496 1.3270528316 1.3652244806
          1.2743052244 1.2120006084 1.2411857843 1.2597322464 1.2887984514 1.3272639513
          1.1938124895 1.3182908297 1.3651199341 1.3832433224 1.2115752697 -0.012285897508
          0.034258104861 0.047599382699 -0.018821297213 -0.059251818806 0.036765567958 0.097797706723
          0.068189099431 0.052401315421 0.020733287558 -0.01605101116 0.11540942639 -0.0040849535726
          -0.051951356232 -0.073507264256 0.096697971225 0.02628127113 0.074159659445 0.037700865418
          0.014622668736 -0.014741495252 -0.0078448699787 -0.044313523918 -0.032582111657 0.011250675656
          0.02517153509 -0.03709467873 0.016517538577 0.034098129719 -0.04129640013 -0.048810228705
          -0.079546824098 -0.094855256379 0.011527599767 0.074237897992 0.044241696596 0.016351478174
          0.09373883903 0.056859090924 0.027021622285 0.034607827663 -0.0032437399495 -0.0015454282984
          -0.041585806757 -0.049320627004 0.091102935374 0.11550500989 -0.032525032759 -0.039201039821
          -0.080260068178 -0.09765201062 -0.098092459142 -0.11826587468 0.072332322598 0.092464253306
          -0.057784311473 0.0061428621411 0.026980509982 -0.069538280368 -0.12484099716 0.0070227514952
          0.095647953451 0.05403380096 0.027526309714 -0.014063729905 -0.069052964449 0.1222088933
          -0.056310027838 -0.12385230511 -0.15001016855 0.095956094563 -0.097404301167 -0.024411825463
          -0.00060724891955 -0.11057475954 -0.17353844643 -0.024032749236 0.075597696006 0.029105728492
          -0.0015545035712 -0.047928661108 -0.10941474885 0.10640320182 -0.094787232578 -0.17069205642
          -0.2010229528 0.077511288226 -0.15265619755 -0.071238465607 -0.044691182673 -0.1676029563
          -0.23840437829 -0.071041502059 0.039868090302 -0.011803614907 -0.045260347426 -0.097705125809
          -0.16669018567 0.073399990797 -0.14968335629 -0.23487043381 -0.26900726557 0.0416383259
          -0.2154314667 -0.12782000005 -0.098908640444 -0.23275883496 -0.30889958143 -0.12737897038
          -0.0053403559141 -0.062903299928 -0.098156072199 -0.15659883618 -0.23217515647 0.030300004408
          -0.2134757489 -0.30729833245 -0.34373643994 -0.0052292216569 -0.27345660329 -0.17836208642
          -0.14660321176 -0.29305487871 -0.37618196011 -0.17763011158 -0.043436832726 -0.10728687793
          -0.14531001449 -0.20987267792 -0.29268750548 -0.0048842686228 -0.27238401771 -0.37558794022
          -0.41544371843 -0.044523328543 -0.327580899 -0.21993291378 -0.1834448725 -0.3506937027
          -0.44496241212 -0.21984623373 -0.067377500236 -0.13975809515 -0.1829367578 -0.2560300827
          -0.3501715064 -0.023490920663 -0.32678166032 -0.44423875213 -0.48970735073 -0.067310892045
          -0.36233448982 -0.23987290263 -0.19768278301 -0.38893717527 -0.49695155025 -0.24034304917
          -0.067234367132 -0.14895109832 -0.19862018526 -0.2816055119 -0.38868501782 -0.017051016912
          -0.3622059226 -0.49594092369 -0.54814314842 -0.066309958696 -0.36110237241 -0.22368517518
          -0.17673222721 -0.39039772749 -0.5109577775 -0.22364169359 -0.030960494652 -0.12198297679
          -0.1771941334 -0.26980519295 -0.38963624835 0.025188665837 -0.35973370075 -0.50963830948
          -0.56826454401 -0.02967017144 -0.32550856471 -0.17477720976 -0.12354721129 -0.35732892156
          -0.48983904719 -0.17518685758 0.03638773784 -0.063274241984 -0.12434983253 -0.22563296556
          -0.35707128048 0.098180159926 -0.32457786798 -0.48815026879 -0.55196797848 0.037830095738
          -0.26146551967 -0.099469490349 -0.044190049171 -0.29597377777 -0.4378875494 -0.10030893236
          0.12832891941 0.020860660821 -0.045724552125 -0.1540145278 -0.29582896829 0.19549295306
          -0.26202759147 -0.43762910366 -0.50537359715 0.12979365885 -0.17400884628 -0.0009257067577
          0.057176206261 -0.21006439626 -0.36173608899 -0.0014969662298 0.2428406924 0.12773422897
          0.056329339743 -0.058957044035 -0.21021939814 0.31447708607 -0.17454384267 -0.36167564988
          -0.43346002698 0.24366754293 -0.083368301392 0.10131495446 0.16216371953 -0.12019184232
          -0.28085842729 0.10136509687 0.36141866446 0.23874905705 0.16228492558 0.040401052684
          -0.12023939192 0.43735706806 -0.082850009203 -0.28062146902 -0.35641095042 0.36114773154
          -0.0027031495702 0.18923479319 0.25199916959 -0.041012942791 -0.20794977248 0.18960218132
          0.46149384975 0.33289152384 0.25340053439 0.1258712709 -0.041327957064 0.5404368639
          -0.0027786053251 -0.20866784453 -0.28643605113 0.45990133286 0.050569694489 0.24834282696
          0.31279936433 0.010999719612 -0.1607247144 0.24871774018 0.52902525663 0.39647474885
          0.31416031718 0.18287277222 0.010408805683 0.61052209139 0.049746438861 -0.16244249046
          -0.24211151898 0.52695024014 0.072056077421 0.27352190018 0.33932754397 0.031462229788
          -0.14356806874 0.27411165833 0.55886912346 0.42417794466 0.34067034721 0.2071685493
          0.031316548586 0.641497612 0.07133679837 -0.14477843046 -0.22649641335 0.55705493689
          0.065692409873 0.26879301667 0.33533397317 0.024926751852 -0.1515429616 0.2695415318
          0.55590128899 0.42033210397 0.33687528968 0.20168915391 0.025188978761 0.63932043314
          0.066440753639 -0.15156777203 -0.23466584086 0.55483591557 0.044686414301 0.24775007367
          0.31497040391 0.0033756997436 -0.17367273569 0.24804590642 0.53413337469 0.39916291833
          0.31567299366 0.18036714196 0.0036946684122 0.61784160137 0.045502532274 -0.172955513
          -0.25649008155 0.53411275148 0.020344883204 0.22407698631 0.29203405976 -0.021573372185
          -0.19965040684 0.22405137122 0.51138138771 0.37580567598 0.29190653563 0.1563128233
          -0.021490497515 0.59540277719 0.020572938025 -0.19930531085 -0.28324484825 0.51150345802
          -0.015258588828 0.017977111042 0.032413121313 -0.026971166953 -0.056598316878 0.014417343773
          0.06635338068 0.043350182474 0.025442250073 0.0037611182779 -0.029485600069 0.082572095096
          -0.024536481127 -0.063263826072 -0.075319178402 0.069165244699 0.022382382303 0.067708484828
          0.030122518539 0.013013624586 -0.01679992862 -0.013787040487 -0.047350682318 0.042756427079
          0.052497573197 0.041338827461 0.014134990051 0.019564544782 0.016608102247 -0.00057804281823
          -0.017742842436 -0.020511487499 -0.042975224555 -0.042234029621 -0.052475318313 -0.01605595462
          0.021723650396 0.030096108094 0.023323927075 0.0024778302759 0.0059076272883 0.0034363251179
          -0.0092151006684 -0.023382963613 -0.024394670501 -0.043258976191 -0.038644339889 -0.048281829804
          -0.019156346098 -0.0039041810669 0.00056756992126 -0.0031975719612 -0.015120033175 -0.012906842865
          -0.013415842317 -0.021465109661 -0.030068218708 -0.030184952542 -0.042187541723 -0.038054652512
          -0.044621709734 -0.026298005134 -0.018980657682 -0.016800196841 -0.018930036575 -0.025124061853
          -0.024055186659 -0.023235030472 -0.028462601826 -0.033451456577 -0.033122073859 -0.040192332119
          -0.036868933588 -0.041080575436 -0.029745770618 -0.0079861469567 -0.0084990840405 -0.011882958002
          -0.015244088136 -0.012947861105 -0.012412412092 -0.015626911074 -0.017364425585 -0.018196634948
          -0.019597683102 -0.022517394274 -0.022022305056 -0.018529023975 4.7592336322e-11 5.8245783197e-11
          1.6492755078e-11 -4.0027342552e-11 -5.2697998743e-11 2.2721059409e-11 4.1747798794e-12 6.131809741e-14
          3.3379227252e-14 0 0 0 3.5763523355e-14
        </DataArray>
        <DataArray type="Float32" Name="uy" format="ascii" RangeMin="-1.1054434776" RangeMax="1.0857402086">
          0.068864017725 0.057561293244 0.051124278456 0.0090784626082 -0.058118879795 -0.058310844004
          -0.060612052679 0.069723248482 0.062232535332 0.04562683776 0.010264541022 -0.060945615172
          -0.057532731444 -0.033169150352 0.060434158891 0.044128078967 -0.05957493186 -0.033749420196
          0.043079584837 0.00097373727476 -0.05428808555 0.043758951128 -0.053902439773 -0.051303494722
          -0.00052898621652 0.043108928949 0.011056154966 0.032701149583 0.080897971988 0.030311150476
          -0.16666035354 -0.11808040738 -0.16833287477 0.10112454742 -0.098041556776 0.072599694133
          -0.12656012177 0.18051165342 0.19384171069 0.13071331382 -0.020657135174 -0.0074276486412
          -0.068734206259 0.23046766222 0.027559509501 0.13075563312 -0.069074265659 0.1614177376
          -0.038564678282 0.13122960925 -0.067723788321 0.22894617915 0.026854308322 0.19169795513
          -0.0079630287364 0.13308343291 -0.065720140934 0.068434506655 -0.12992632389 0.25848606229
          0.30799493194 0.25687927008 0.32809829712 0.29792907834 0.41010114551 0.42313411832
          0.35883632302 0.46145308018 0.35889700055 0.39023926854 0.35894519091 0.45998460054
          0.42076852918 0.35935163498 0.2951386869 0.492816329 0.54294067621 0.49186900258
          0.56244289875 0.53117740154 0.64564621449 0.6575986743 0.5937666893 0.69788688421
          0.59426796436 0.62539070845 0.59269541502 0.69698518515 0.6563334465 0.59300148487
          0.52961206436 0.70621871948 0.75513511896 0.70602065325 0.77422320843 0.74215966463
          0.85638940334 0.86706489325 0.80447137356 0.90826416016 0.80530846119 0.83614087105
          0.80228286982 0.90752315521 0.86615031958 0.80259478092 0.74151974916 0.87288957834
          0.91336345673 0.87303394079 0.92843949795 0.90112411976 0.99760717154 1.0056810379
          0.95394837856 1.0412299633 0.95468151569 0.98019719124 0.95109379292 1.0406446457
          1.0043475628 0.95039588213 0.90101706982 0.95050597191 0.98266500235 0.95113402605
          0.99429392815 0.97167116404 1.0498586893 1.0549999475 1.0143625736 1.0852800608
          1.0154703856 1.0362994671 1.0110094547 1.0857402086 1.0562337637 1.0113174915
          0.97269123793 0.93197995424 0.95749980211 0.93389385939 0.96552395821 0.94755524397
          1.008841753 1.0118585825 0.98153942823 1.0359581709 0.98224151134 0.99839448929
          0.97870594263 1.037561059 1.0143820047 0.97861170769 0.9504981637 0.84195190668
          0.8573923111 0.84475904703 0.86138409376 0.85004967451 0.88612002134 0.88667666912
          0.87073808908 0.90081638098 0.87138748169 0.88090753555 0.86913716793 0.90294933319
          0.89064717293 0.86899673939 0.85423773527 0.70389533043 0.7082901001 0.70718163252
          0.70767617226 0.70400673151 0.71232950687 0.71076285839 0.71016436815 0.71415537596
          0.71005946398 0.71216225624 0.7098107338 0.71702009439 0.71503657103 0.70899289846
          0.70946568251 0.54090231657 0.53973287344 0.54478347301 0.53666621447 0.5368911624
          0.53159159422 0.52890002728 0.53605473042 0.52658289671 0.53545224667 0.5339641571
          0.5367462039 0.5301450491 0.53370296955 0.5352025032 0.54351699352 0.38051307201
          0.37545913458 0.38413739204 0.37166279554 0.37440425158 0.35982656479 0.35609260201
          0.36795836687 0.3506731391 0.36772713065 0.36399796605 0.3685708046 0.3540430367
          0.36165377498 0.36854279041 0.37971672416 0.23758655787 0.22613310814 0.24017757177
          0.21966387331 0.22650420666 0.19750718772 0.19302600622 0.21249590814 0.18256880343
          0.21192611754 0.20361590385 0.21299399436 0.18523478508 0.19657212496 0.21182648838
          0.23162901402 0.10736183822 0.088939346373 0.10888337344 0.080570429564 0.091862291098
          0.048638742417 0.043105062097 0.069021455944 0.028207682073 0.068813540041 0.056547876447
          0.06931836158 0.029926398769 0.045401111245 0.068859614432 0.095022469759 -0.019327238202
          -0.043731383979 -0.018321270123 -0.053449373692 -0.038646362722 -0.093886114657 -0.10058184713
          -0.06880197674 -0.11913596839 -0.068758457899 -0.083906672895 -0.069230608642 -0.11798223853
          -0.098848380148 -0.068891353905 -0.037618618459 -0.15351693332 -0.18426628411 -0.15317296982
          -0.19659131765 -0.17780670524 -0.24587734044 -0.25378447771 -0.21526880562 -0.27636614442
          -0.2151658833 -0.23418501019 -0.2159678638 -0.27584442496 -0.25316616893 -0.21613113582
          -0.17733308673 -0.30816912651 -0.34458732605 -0.30820953846 -0.35865846276 -0.33687710762
          -0.41511386633 -0.42415821552 -0.38055828214 -0.44942003489 -0.38051477075 -0.40226098895
          -0.38139489293 -0.44964972138 -0.42434445024 -0.38177937269 -0.33686333895 -0.49181011319
          -0.53299188614 -0.49275067449 -0.54791742563 -0.52297854424 -0.61302554607 -0.62295788527
          -0.57365965843 -0.65254193544 -0.57304751873 -0.59796833992 -0.57494282722 -0.65313780308
          -0.62338072062 -0.57370615005 -0.52502286434 -0.70333236456 -0.74790245295 -0.70412963629
          -0.76459544897 -0.73742902279 -0.83550006151 -0.84566009045 -0.79175174236 -0.87895035744
          -0.79173696041 -0.81897485256 -0.79241162539 -0.87941169739 -0.84651833773 -0.79233306646
          -0.7382081151 -0.9270658493 -0.97191631794 -0.92682862282 -0.98945957422 -0.96166843176
          -1.0607761145 -1.0709273815 -1.0162186623 -1.1053090096 -1.016787529 -1.0443590879
          -1.0159404278 -1.1054434776 -1.0718308687 -1.0171312094 -0.96132653952 -0.27855208516
          -0.22003787756 -0.27993890643 -0.19672065973 -0.23152928054 -0.10962352902 -0.095962174237
          -0.16361117363 -0.056172728539 -0.16355971992 -0.1286174804 -0.16288864613 -0.055384058505
          -0.093315519392 -0.15960709751 -0.23380413651 -0.043584611267 -0.041956692934 -0.031944565475
          -0.053669366986 -0.04651491344 -0.030799103901 -0.038950670511 0.27312368155 0.22839099169
          0.27259990573 0.31099379063 0.25598159432 0.31132707 0.21161268651 0.23502862453
          0.23993559182 0.26978811622 0.13897185028 0.13002420962 0.18420699239 0.14537863433
          0.13278530538 0.20093260705 0.094707265496 0.089520961046 0.18360333145 0.20080764592
          0.15613152087 0.16716815531 0.18544879556 0.20158548653 0.094246305525 0.09014377743
          0.12907204032 0.13392342627 0.18518507481 0.20247934759 0.2395132333 0.2699432373
          0.37528726459 0.3109279871 0.37595799565 0.28633290529 0.32592669129 0.18166740239
          0.16569381952 0.24583511055 0.11715093255 0.24617093801 0.20704203844 0.24559503794
          0.1179009378 0.16761879623 0.24700565636 0.32632225752 0.43572622538 0.36306241155
          0.43668669462 0.33474475145 0.37871003151 0.21692895889 0.19825838506 0.28941494226
          0.14416590333 0.2897964716 0.2450555712 0.28844475746 0.14500240982 0.20000618696
          0.28877511621 0.37984892726 0.46039503813 0.37866276503 0.4608913362 0.34715858102
          0.3964164257 0.21660090983 0.19647465646 0.29713192582 0.13567067683 0.29737773538
          0.24703364074 0.29599016905 0.13566231728 0.19637097418 0.29560679197 0.39745339751
          0.4490288198 0.36048847437 0.44965136051 0.32591766119 0.38027256727 0.18363966048
          0.16273334622 0.27198162675 0.095027379692 0.27176105976 0.2166890651 0.27217561007
          0.09442371875 0.16146878898 0.27040237188 0.38163369894 0.42748266459 0.32988491654
          0.42728564143 0.29245606065 0.35299810767 0.13522404432 0.11327107996 0.23286037147
          0.03801587224 0.23251976073 0.17170780897 0.23342524469 0.037019904703 0.11104413122
          0.23195831478 0.35322248936 0.42307546735 0.31137430668 0.42239528894 0.26898857951
          0.33838808537 0.089961253107 0.065149910748 0.20053885877 -0.019801933318 0.20035655797
          0.13167324662 0.20101374388 -0.02108094655 0.062776550651 0.2003543824 0.33728823066
          0.43339827657 0.30597180128 0.43196573853 0.25790598989 0.33702081442 0.053727362305
          0.024905204773 0.17990365624 -0.071433246136 0.17973187566 0.10105181485 0.1795783639
          -0.07318649441 0.022076858208 0.17900975049 0.33460146189 0.42936897278 0.28663563728
          0.42742976546 0.23330722749 0.32162946463 0.0050718332641 -0.027252620086 0.14516896009
          -0.13463546336 0.14581878483 0.058157559484 0.14476178586 -0.13667097688 -0.030425583944
          0.14528696239 0.3182233274 0.40567094088 0.24966989458 0.40412044525 0.19073276222
          0.28709095716 -0.058868803084 -0.094368472695 0.094954624772 -0.21228849888 0.094903632998
          -0.00096665578894 0.094857811928 -0.21402810514 -0.097640097141 0.094331018627 0.28493398428
          0.36890476942 0.20126447082 0.36780160666 0.13772150874 0.24130418897 -0.13192355633
          -0.1707238853 0.034388549626 -0.29795968533 0.034547243267 -0.068926505744 0.034027386457
          -0.2991591692 -0.17282694578 0.033580031246 0.2395247817 0.31662994623 0.13831195235
          0.31633600593 0.070021077991 0.18022252619 -0.21839205921 -0.26029843092 -0.039798099548
          -0.39613565803 -0.040261741728 -0.15063479543 -0.040433101356 -0.39671099186 -0.26135829091
          -0.041093960404 0.1801032424 0.25321987271 0.065309524536 0.25411662459 -0.0075569148175
          0.10865772516 -0.31269332767 -0.35728052258 -0.12335608155 -0.5018093586 -0.12365829945
          -0.24088437855 -0.12288536131 -0.50177997351 -0.35774791241 -0.12457481027 0.11055103689
          0.18189078569 -0.01358897984 0.18359258771 -0.08942373842 0.031136060134 -0.408118397
          -0.45522260666 -0.21048203111 -0.6059718132 -0.21075063944 -0.33249700069 -0.20987667143
          -0.6046884656 -0.45322111249 -0.2109400183 0.034404695034 0.11649543047 -0.084675475955
          0.11848308146 -0.16290594637 -0.038417890668 -0.49123817682 -0.53966021538 -0.28720751405
          -0.69538301229 -0.28803262115 -0.41317552328 -0.28635832667 -0.69390296936 -0.53741157055
          -0.28730762005 -0.034677606076 0.072295069695 -0.13264337182 0.073734745383 -0.21208675206
          -0.08513969183 -0.54517865181 -0.59375524521 -0.33822801709 -0.75189697742 -0.33891496062
          -0.46633893251 -0.3375788331 -0.75127953291 -0.59295785427 -0.33889421821 -0.082484051585
          0.043319016695 -0.16348476708 0.044046726078 -0.24286700785 -0.11519318074 -0.57863229513
          -0.62805259228 -0.37104797363 -0.78666388988 -0.37083294988 -0.49908691645 -0.37096381187
          -0.78602439165 -0.62689459324 -0.37082523108 -0.11403860897 0.012179434299 -0.19612412155
          0.01248965878 -0.27546018362 -0.1469411552 -0.61207145452 -0.66119807959 -0.40423902869
          -0.81980746984 -0.40419360995 -0.53255742788 -0.40429395437 -0.8195771575 -0.66094851494
          -0.40408688784 -0.14663757384 -0.016130143777 -0.22532837093 -0.016083512455 -0.30554485321
          -0.17615891993 -0.64349663258 -0.69276255369 -0.43436947465 -0.85225099325 -0.43469882011
          -0.56391358376 -0.43428346515 -0.85228306055 -0.69274944067 -0.43469554186 -0.17566950619
          0.21275117993 0.18059951067 0.21333244443 0.16746304929 0.18763056397 0.11317212135
          0.1067481488 0.14782953262 0.079405352473 0.14702837169 0.1255403012 0.14896030724
          0.078965269029 0.10507369787 0.14667211473 0.18967197835 0.028926933184 0.025292869657
          0.014940544032 0.042753171176 0.034404400736 0.015484127216 0.026125425473 0.041447728872
          0.072127118707 0.10330819339 0.12197633833 0.072148159146 0.023085443303 0.071822710335
          0.12110861391 0.07162079215 0.10134384036 0.040862880647 0.070449657738 0.022948695347
          0.10899943858 0.13173653185 0.15514194965 0.17070965469 0.13236168027 0.095615647733
          0.13211736083 0.17010751367 0.13159418106 0.1538528055 0.10734553635 0.12984725833
          0.095128811896 0.13305854797 0.14597886801 0.15966761112 0.1690903604 0.14696012437
          0.12575276196 0.14655505121 0.16861853004 0.14563278854 0.15763184428 0.12996853888
          0.14220999181 0.12406554818 0.09986423701 0.10700687021 0.11463089287 0.11984071136
          0.10714645684 0.094974890351 0.10658385605 0.11974585056 0.10622769594 0.11350677162
          0.096724256873 0.10450669378 0.093573398888 0.0377015993 0.043028425425 0.046184200794
          0.046531558037 0.040800988674 0.033570803702 0.0403855443 0.04608316347 0.040542561561
          0.045229069889 0.037831656635 0.042205516249 0.033753797412 7.2617975001e-12 -1.3367640328e-10
          1.5895106412e-11 -1.2862845554e-12 -3.7867781827e-11 -4.1079613669e-12 -3.5839371835e-12 -9.4223814948e-13
          1.7445092137e-13 0 0 0 7.7354585953e-14
        </DataArray>
        <DataArray type="Float32" Name="uz" format="ascii" RangeMin="-0.21705071628" RangeMax="0.14722406864">
          -0.042319584638 -0.035822473466 -0.045819561929 -0.041360400617 -0.039161935449 -0.036271050572
          -0.03453065455 -0.032516952604 -0.025191046298 -0.023685377091 -0.030092893168 -0.03150383383
          -0.032325029373 -0.025962673128 -0.053421735764 -0.048921559006 -0.037435527891 -0.045253906399
          -0.031645197421 -0.023564334959 -0.03451269865 -0.023566514254 -0.033183392137 -0.035046320409
          -0.048699047416 -0.054535713047 -0.035689875484 0.029046710581 -0.036810580641 -0.045414336026
          0.001468311646 -0.04528689757 -0.060628481209 0.026173029095 0.0097416024655 0.081250190735
          0.049975410104 -0.057796824723 -0.13893476129 -0.088848620653 -0.048557206988 -0.11308926344
          -0.081716626883 -0.086387127638 -0.063712649047 -0.028659867123 -0.031661249697 0.013186574914
          0.007204095833 -0.14947982132 -0.13209243119 -0.012139579281 -0.0034935302101 0.055851742625
          0.046767950058 0.091248586774 0.067551001906 -0.11358658224 -0.11161582172 0.055419594049
          -0.026167809963 -0.025139190257 0.038099501282 0.1042554602 -0.068718343973 -0.15891329944
          -0.092064760625 -0.11030596495 -0.027487313375 0.011486759409 -0.15773923695 -0.030297607183
          0.050866190344 0.10216386616 -0.10645964742 0.071625851095 -0.015634054318 -0.0053513580933
          0.042233299464 0.11177655309 -0.07468611747 -0.16374966502 -0.087926089764 -0.12412704527
          -0.025970634073 0.0056597501971 -0.15106858313 -0.046904332936 0.038123633713 0.098638571799
          -0.09027800709 0.072554834187 -0.0081399325281 0.010644892231 0.0345341824 0.097176916897
          -0.076013594866 -0.15086083114 -0.076486974955 -0.12680315971 -0.026644762605 -0.007363833487
          -0.12766450644 -0.06423702091 0.012303871103 0.073778055608 -0.065737739205 0.060209684074
          -0.0030517231207 0.023985102773 0.016228990629 0.062612444162 -0.074070885777 -0.12153276801
          -0.058828011155 -0.11922870576 -0.029528878629 -0.027777917683 -0.08869766444 -0.082720510662
          -0.025852542371 0.029560290277 -0.032919928432 0.041162837297 0.0017549510812 0.036086186767
          -0.0066037513316 0.018654972315 -0.067584902048 -0.081084385514 -0.035797376186 -0.10390040278
          -0.031648445874 -0.049416866153 -0.039507951587 -0.098791889846 -0.068099446595 -0.022987289354
          0.0051573473029 0.014541581273 0.0027412232012 0.03957844153 -0.030187448487 -0.027994154021
          -0.055510446429 -0.036875743419 -0.0129493922 -0.079466722906 -0.032505851239 -0.06624058634
          0.0074198893271 -0.10404618829 -0.10143370926 -0.072119690478 0.036489270627 -0.021325081587
          -0.0038024671376 0.02630870603 -0.052755042911 -0.072919413447 -0.038875773549 0.0066849184223
          0.0048415157944 -0.045134287328 -0.032965730876 -0.074330627918 0.043608114123 -0.092239946127
          -0.11694919318 -0.10913626105 0.05107210204 -0.060292683542 -0.018509216607 -0.0018365741707
          -0.071656063199 -0.1090291217 -0.021898623556 0.039592638612 0.012360376306 -0.0090475566685
          -0.034591030329 -0.073637835681 0.060088835657 -0.067458726466 -0.11342746019 -0.12917493284
          0.044065333903 -0.099495835602 -0.037967540324 -0.039657361805 -0.085369706154 -0.13496476412
          -0.0047631724738 0.061724022031 0.011663885787 0.026640839875 -0.036124445498 -0.064347460866
          0.059720043093 -0.03239486739 -0.092911444604 -0.13213531673 0.021104758605 -0.13736972213