<VTKFile type="UnstructuredGrid" version="1.0" byte_order="LittleEndian" header_type="UInt64">
  <UnstructuredGrid>
    <Piece NumberOfPoints="791" NumberOfCells="973">
      <PointData>
        <DataArray type="Float32" Name="ux" format="ascii" RangeMin="0" RangeMax="0.59032309055">
          0.42397844791 0.56159770489 0.13921920955 0.12768685818 0.10218690336 0.19276887178
          0.23870936036 0.27908143401 0.40709882975 0.25897958875 0.55406558514 0.58072143793
          0.41284692287 0.22685821354 0.47791400552 0.45846551657 0.30214777589 0.31707346439
          0.44994670153 0.52641624212 0.43465524912 0.089117772877 0.14448806643 0.28540942073
          0.54208076 0.22835218906 0.57017827034 0.13080009818 0.48901391029 0.40312856436
          0.28791093826 0.37175789475 0.40632602572 0.41503557563 0.3144748807 0.14513239264
          0.1134211868 0.35710611939 0.27404394746 0.45232826471 0.43696066737 0.34714052081
          0.28214675188 0.35351186991 0.56643092632 0.12685920298 0.51738917828 0.072677619755
          0.49703294039 0.15510773659 0.24849823117 0.32471358776 0.42139422894 0.40296083689
          0.07624270767 0.4785990417 0.31498333812 0.39937844872 0.57573246956 0.41777068377
          0.50979948044 0.10073065758 0.087510272861 0.089281193912 0.19344691932 0.5066998601
          0.50901198387 0.28859436512 0.36648020148 0.41462469101 0.30113765597 0.066691219807
          0.27458411455 0.5892573595 0.25260022283 0.55694550276 0.28020173311 0.096230909228
          0.40624195337 0.40370345116 0.1879158318 0.40313085914 0.45783936977 0.21637791395
          0.19963301718 0.21101731062 0.29031574726 0.26912331581 0.18165099621 0.3222387135
          0.26239940524 0.28571298718 0.18858918548 0.26569935679 0.31541499496 0.23677682877
          0.52674013376 0.29300522804 0.58479499817 0.56444078684 0.23826053739 0.17426338792
          0.14223617315 0.4690066576 0.25047561526 0.50567829609 0.58800512552 0.47620344162
          0.25440242887 0.50409859419 0.25036486983 0.40097460151 0.54507607222 0.14548955858
          0.072967648506 0.5628117919 0.39421403408 0.11716197431 0.20892855525 0.59032309055
          0.30802419782 0.15258955956 0.34131786227 0.58971989155 0.26274839044 0.40498626232
          0.54767519236 0.57022511959 0.39971244335 0.35675799847 0.20149208605 0.17277646065
          0.28299996257 0.49742117524 0.35288923979 0.44691023231 0.21922971308 0.53549432755
          0.18414835632 0.086500369012 0.37487888336 0.31434524059 0.12096891552 0.40098741651
          0.32029724121 0.43757456541 0.40252619982 0.44626143575 0.30429601669 0.49035662413
          0.52060437202 0.51121407747 0.31031957269 0.4661051333 0.43271306157 0.44912013412
          0.19351132214 0.10251405835 0.35031235218 0.58439540863 0.47159311175 0.5357696414
          0.529979527 0.33541220427 0.57796543837 0.48693114519 0.45664730668 0.5556820035
          0.11211435497 0.41870877147 0.1361759901 0.48611292243 0.43247112632 0.095781110227
          0.2409466058 0.58284723759 0.29444736242 0.46302765608 0.30591332912 0.42552262545
          0.15268145502 0.55506163836 0.15578205884 0.49036696553 0.20569573343 0.24133762717
          0.15657185018 0.42580398917 0.080490626395 0.25856056809 0.5767057538 0.066256053746
          0.51137024164 0.25053548813 0.15842290223 0.29643061757 0.26129201055 0.29690948129
          0.075870580971 0.34122645855 0.27050194144 0.43412870169 0.37294411659 0.34403830767
          0.59019118547 0.072691112757 0.54085284472 0.090667784214 0.44265165925 0.48616358638
          0.18960253894 0.21970325708 0.3741401732 0.30866110325 0.43907386065 0.19362492859
          0.15103885531 0.33650884032 0.53211295605 0.14610016346 0.18623189628 0.48665556312
          0.18377496302 0.54025572538 0.50000631809 0.40975698829 0.39493700862 0.36555200815
          0.48541504145 0.53965723515 0.3585511446 0.43390959501 0.18670278788 0.086136810482
          0.49781632423 0.37225657701 0.19724428654 0.32450142503 0.071445524693 0.39802119136
          0.49963286519 0.40367180109 0.4323630929 0.35945731401 0.31838670373 0.15789373219
          0.31085535884 0.090277865529 0.079848818481 0.15129958093 0.41164878011 0.47013103962
          0.21148468554 0.45297887921 0.40813034773 0.17663235962 0.58355098963 0.23051306605
          0.52500104904 0.07550599426 0.44805130363 0.17599877715 0.36371162534 0.57478189468
          0.15387745202 0.42497846484 0.56007218361 0.10643525422 0.10887885839 0.36969310045
          0.29838767648 0.5029976368 0.11164634675 0.23544873297 0.061102833599 0.28053376079
          0.064020738006 0.55157423019 0.33883410692 0.30638307333 0.14655639231 0.077378794551
          0.069864079356 0.48142972589 0.090831175447 0.31098568439 0.3292593956 0.52313005924
          0.44555619359 0.36964306235 0.24730204046 0.087500974536 0.13931298256 0.092846140265
          0.14010645449 0.54124307632 0.52033978701 0.092661030591 0.27817189693 0.24195297062
          0.29887288809 0.51823449135 0.31398192048 0.57058352232 0.074333362281 0.47981542349
          0.36072894931 0.084744013846 0.53654593229 0.11180111766 0.073550418019 0.16308407485
          0.30716222525 0.3907494843 0.49106964469 0.51981669664 0.079063713551 0.21673612297
          0.26930224895 0.1665686518 0.10063174367 0.14785857499 0.34184244275 0.086774908006
          0.41660273075 0.54281497002 0.4020421505 0.5501229167 0.20452567935 0.24160304666
          0.57747465372 0.098284251988 0.28199622035 0.51142555475 0.44377031922 0.26260411739
          0.41134032607 0.5782455802 0.16852366924 0.22805273533 0.078059099615 0.49992114305
          0.39598542452 0.43855652213 0.30459952354 0.2556591928 0.57572609186 0.40036121011
          0.35610875487 0.1166600734 0.37339258194 0.14570772648 0.55501401424 0.53287911415
          0.57602381706 0.13975945115 0.5835621357 0.53459340334 0.060258187354 0.1598739028
          0.47496438026 0.46859431267 0.37862250209 0.21126714349 0.14048346877 0.31362444162
          0.51599478722 0.18751639128 0.16917653382 0.36126899719 0.56872296333 0.26323401928
          0.52977091074 0.49978128076 0.064632721245 0.48065513372 0.15368622541 0.48390132189
          0.45221188664 0.36708113551 0.40214139223 0.21062783897 0.13733281195 0.51721227169
          0.50242048502 0.27767208219 0.074655309319 0.17598165572 0.31326141953 0.13614562154
          0.25884351134 0.29726320505 0.57255113125 0.49889716506 0.23367163539 0.30684223771
          0.15306967497 0.37117540836 0.53038871288 0.066676959395 0.25154522061 0.46358376741
          0.44968512654 0.53654927015 0.27997478843 0.15169836581 0.26824754477 0.52588802576
          0.26830998063 0.43566173315 0.21737682819 0.51273691654 0.17483189702 0.56786084175
          0.57962876558 0.12182431668 0.53300964832 0.58765244484 0.2215526402 0.077216945589
          0.087178334594 0.32512703538 0.36432120204 0.060794584453 0.14661496878 0.29185071588
          0.58580130339 0.34660625458 0.12990044057 0.38069838285 0.33326488733 0.24974919856
          0.35333868861 0.20954455435 0.27332732081 0.29823487997 0.58220559359 0.25067669153
          0.30248144269 0.26925608516 0.31604400277 0.12018020451 0.51158368587 0.4017380774
          0.43926432729 0.24119795859 0.11688744277 0.20920309424 0.21319375932 0.16943977773
          0.52200639248 0.21291540563 0.41628158092 0.40027484298 0.076389044523 0.41679018736
          0.071229159832 0.29150280356 0.43554309011 0.16478042305 0.078047931194 0.23723994195
          0.14563067257 0.20873253047 0.14874784648 0.49212637544 0.27277609706 0.41773855686
          0.19848816097 0.29882869124 0.45733332634 0.20108059049 0.38244521618 0.47195523977
          0.57893365622 0.30200499296 0.42338246107 0.22440747917 0.3331926465 0.58619725704
          0.43359556794 0.47492992878 0.35393598676 0.35261818767 0.23437231779 0.40291818976
          0.26706400514 0.53667205572 0.51654338837 0.4794241488 0.5057015419 0.16875360906
          0.20074638724 0.50239485502 0.58464294672 0.57488411665 0.41504830122 0.30832079053
          0.2392436862 0.14512018859 0.27881455421 0.27729198337 0.22430281341 0.29459622502
          0.11929734796 0.13126151264 0.092127285898 0.353364259 0.10558697581 0.54515886307
          0.40548753738 0.57937067747 0.27675199509 0.31683632731 0.33614256978 0.42423897982
          0.090296156704 0.46231210232 0.33564603329 0.13401250541 0.27132320404 0.31107547879
          0.32809707522 0.082337275147 0.095730178058 0.3863415122 0.10269460082 0.52083975077
          0.11116332561 0.34943249822 0.21184524894 0.38716247678 0.28396636248 0.17946724594
          0.21322710812 0.46608361602 0.20489025116 0.35521832108 0.078540757298 0.56298029423
          0.32525414228 0.3608738184 0.51593351364 0.59023815393 0.28491529822 0.47694602609
          0.366176337 0.4612788558 0.31977120042 0.22684143484 0.1900241524 0.32732582092
          0.22367924452 0.53815692663 0.10577427596 0.5796970129 0.120470725 0.31772625446
          0.41951972246 0.21339663863 0.57764649391 0.51551276445 0.065410912037 0.51502543688
          0.072500817478 0.45520371199 0.36748671532 0.43891504407 0.36751779914 0.10644744337
          0.35171592236 0.087543316185 0.58432900906 0.4705850482 0.23970203102 0.41220718622
          0.27706411481 0.31305477023 0.53719186783 0.36623370647 0.36288657784 0.19585891068
          0.39720454812 0.4827978313 0.16018731892 0.16941733658 0.30448412895 0.30967238545
          0.10674256086 0.14973117411 0.14238294959 0.37630563974 0.44536393881 0.36664170027
          0.32274571061 0.14845435321 0.19781371951 0.1841827333 0.53574872017 0.46868065
          0.06704928726 0.25557792187 0.57036805153 0.18195076287 0.288831532 0.52879983187
          0.38637208939 0.17678654194 0.22586546838 0.20296928287 0.17681337893 0.3101657927
          0.21395587921 0.14110325277 0.3045232892 0.41813179851 0.58611953259 0.36285007
          0.21015106142 0.21379505098 0.45840516686 0.15754084289 0.30123415589 0.26841557026
          0.31308287382 0.21836689115 0.11938648671 0.5814896822 0.20673717558 0.51924991608
          0.070832937956 0.27468428016 0.36548689008 0.12269275635 0.20088468492 0.33714461327
          0.42624038458 0.26135870814 0.50236171484 0.18135862052 0.27652999759 0.25286853313
          0.38651207089 0.29642355442 0.56201398373 0.15578135848 0.35661110282 0.41210344434
          0.56440585852 0.47983926535 0.4943086803 0.41008895636 0.17365194857 0.10511217266
          0.53438085318 0.20860180259 0.56297755241 0.13007232547 0.21390402317 0.3152679503
          0.58800500631 0.4548407495 0.39747071266 0.46215289831 0.42272892594 0.33111661673
          0.36969658732 0.31927961111 0.54147714376 0.29245012999 0.35367286205 0.30380341411
          0.098646529019 0.17932580411 0.56159698963 0.16968591511 0.28331014514 0.21734297276
          0.31061094999 0.4309527576 0.30111497641 0.22118622065 0.12644526362 0.40220603347
          0.1845113337 0.24969723821 0.20795693994 0.20817250013 0.41499596834 0.25397831202
          0.14210684597 0.57303839922 0.46669259667 0.2059135288 0.28873309493 0.4256297946
          0.39504265785 0.23006142676 0.24744679034 0.10879246891 0.39315059781 0.1960529685
          0.18501032889 0.40182879567 0.52932095528 0.20781160891 0.23554982245 0.24727728963
          0.25273367763 0.22940079868 0.56162154675 0.18956650794 0.40605860949 0.059268582612
          0.18332907557 0.38603413105 0.57473915815 0.36987233162 0.34234791994 0.50158321857
          0.23075190187 0.24696393311 0.4482845068 0.51433897018 0.17146342993 0.08588976413
          0.58825522661 0.42765176296 0.41847714782 0.4989117682 0.39240267873 0.26756641269
          0.38577783108 0.10632374138 0.22903354466 0.13318149745 0.43052667379 0.15527291596
          0.41506451368 0.36211520433 0.29519864917 0.11093606055 0.1221711114 0.28915065527
          0.42253485322 0.50292277336 0.50926500559 0.37221470475 0.46017789841 0.12695723772
          0.32467591763 0.077679619193 0.24280203879 0.54710578918 0.24338281155 0.43930009007
          0.26065796614 0.29537817836 0.10311838984 0.10788621753 0.49380108714 0.063291423023
          0.21532776952 0.20421724021 0.23808656633 0.54480999708 0.52810877562 0.43381676078
          0.41099926829 0.17650924623 0.072266876698 0.10869271308 0.48250871897 0.39790144563
          0.12618237734 0.57579725981 0.18977156281 0.072662219405 0 0
          0 0 0 0 0 0
          0 0 0 0 0
        </DataArray>
        <DataArray type="Float32" Name="uy" format="ascii" RangeMin="0" RangeMax="0.59030729532">
          0.58251929283 0.13067142665 0.44341063499 0.18157371879 0.29416337609 0.21372790635
          0.14813673496 0.10668959469 0.4632396698 0.35367140174 0.53333038092 0.090119704604
          0.41321748495 0.50442439318 0.20940434933 0.31741550565 0.39954683185 0.11748629063
          0.37432953715 0.29606169462 0.25879022479 0.18990318477 0.38725626469 0.31959953904
          0.28097739816 0.10248845071 0.1868584305 0.18817912042 0.40794941783 0.53208959103
          0.29384726286 0.12313313782 0.23311449587 0.45874595642 0.11735627055 0.19295586646
          0.45040279627 0.13937926292 0.45221087337 0.12786360085 0.34981837869 0.4201849699
          0.29996266961 0.22775015235 0.4536882937 0.25478351116 0.55417370796 0.5792260766
          0.22168022394 0.56859451532 0.46528697014 0.37511560321 0.44587573409 0.47262370586
          0.23633943498 0.24920114875 0.58869457245 0.1745518595 0.31562799215 0.40487548709
          0.35428276658 0.22899650037 0.13110814989 0.13874900341 0.10787205398 0.2005200386
          0.21209305525 0.36312365532 0.35291162133 0.40971723199 0.43301746249 0.28535687923
          0.13051491976 0.35576280951 0.48867931962 0.30147358775 0.35998094082 0.45344051719
          0.55876070261 0.23738031089 0.53370124102 0.26832461357 0.37330517173 0.223150298
          0.21080289781 0.57359546423 0.40143314004 0.51070618629 0.21205322444 0.060308709741
          0.48884642124 0.15278752148 0.51404953003 0.26800054312 0.44412127137 0.32262426615
          0.54248058796 0.20265358686 0.4784822166 0.48796877265 0.26420527697 0.44608464837
          0.47018417716 0.29920315742 0.36033299565 0.15381586552 0.45028597116 0.55384594202
          0.51283437014 0.080504246056 0.26404112577 0.2638605535 0.12040150911 0.46162599325
          0.4659551084 0.13548275828 0.53445237875 0.47896465659 0.2917330265 0.24121281505
          0.47366523743 0.1013763845 0.46740674973 0.57840114832 0.47148475051 0.48531863093
          0.45489883423 0.31130540371 0.16974015534 0.4095184505 0.20173496008 0.41143018007
          0.51946252584 0.27634811401 0.34117275476 0.12293150276 0.535836339 0.1035829857
          0.28069350123 0.46721360087 0.35889583826 0.36706653237 0.18691624701 0.10762662441
          0.36059117317 0.17300570011 0.15583653748 0.45007628202 0.39240422845 0.38101932406
          0.33115848899 0.5597795248 0.44870001078 0.1431338191 0.088689394295 0.26992252469
          0.44356715679 0.16635000706 0.42532482743 0.39050316811 0.084562264383 0.30280387402
          0.46065208316 0.29483538866 0.28045877814 0.46805632114 0.14896297455 0.58914923668
          0.12990710139 0.55412614346 0.32465657592 0.33064347506 0.22272251546 0.29520145059
          0.17621387541 0.076077155769 0.29178869724 0.16359712183 0.30994912982 0.22063887119
          0.56431019306 0.44019278884 0.34119492769 0.24392578006 0.49595087767 0.27392807603
          0.4581195116 0.43247324228 0.32012152672 0.13887904584 0.35794717073 0.10866995901
          0.31661462784 0.43703150749 0.4271042645 0.27759996057 0.27430936694 0.059754930437
          0.12056693435 0.25007653236 0.54624450207 0.38786703348 0.24098810554 0.37064319849
          0.091381981969 0.088800624013 0.39627224207 0.53084683418 0.10467676073 0.27246782184
          0.50635182858 0.44060763717 0.19922588766 0.40344160795 0.23561936617 0.42980095744
          0.37745416164 0.27421680093 0.47498327494 0.3932492435 0.13303998113 0.34240278602
          0.16198165715 0.53684085608 0.54691308737 0.41161313653 0.37348288298 0.059488397092
          0.36712235212 0.18859615922 0.38693332672 0.087981343269 0.13537842035 0.11311793327
          0.57399594784 0.088107414544 0.36581009626 0.186950773 0.31378415227 0.34501165152
          0.26747530699 0.40428385139 0.24099427462 0.34725883603 0.29430606961 0.21098472178
          0.54483050108 0.066427528858 0.17679449916 0.51816803217 0.27493929863 0.48926347494
          0.32475349307 0.074758559465 0.24564819038 0.22992640734 0.58594018221 0.17961925268
          0.090429216623 0.3282161057 0.35818716884 0.12486428022 0.22919256985 0.45111650229
          0.11619074643 0.21426826715 0.31780079007 0.37817502022 0.14918066561 0.33924555779
          0.34579524398 0.061674650759 0.1765922159 0.25864508748 0.50085967779 0.15101067722
          0.38309663534 0.5041180253 0.12431186438 0.30575534701 0.078101746738 0.22378012538
          0.20177665353 0.18396702409 0.5497751236 0.21776279807 0.13774636388 0.088485740125
          0.30739319324 0.2361394316 0.49306228757 0.29480153322 0.43272614479 0.24792200327
          0.10929576308 0.5728957653 0.10508485138 0.23890799284 0.40482765436 0.53662335873
          0.10057533532 0.589374125 0.27988308668 0.38391679525 0.31543719769 0.41216817498
          0.28267914057 0.56045454741 0.4866707623 0.17827561498 0.25418946147 0.38003981113
          0.26937538385 0.41564881802 0.11585833132 0.21359667182 0.083207085729 0.16590796411
          0.50956588984 0.4691850841 0.28168925643 0.1460262984 0.48434001207 0.57890063524
          0.32948637009 0.48444664478 0.48184132576 0.30767658353 0.57974278927 0.20921093225
          0.12478846312 0.30075365305 0.49217513204 0.21017113328 0.39857310057 0.24662595987
          0.3817076087 0.54000020027 0.53676426411 0.21722254157 0.5656709671 0.26010748744
          0.22957074642 0.56037819386 0.19106072187 0.37074303627 0.31301179528 0.22293700278
          0.40634185076 0.53272688389 0.25758063793 0.54250913858 0.40835547447 0.15234693885
          0.13964375854 0.16432227194 0.28962564468 0.10515482724 0.11033312231 0.35648965836
          0.09038361907 0.25988942385 0.27456477284 0.50917899609 0.26247310638 0.2230130136
          0.5450501442 0.31924417615 0.063874691725 0.29159772396 0.5521325469 0.22568209469
          0.55334037542 0.58681726456 0.42189586163 0.3674890101 0.2508687079 0.2621871829
          0.24363462627 0.50997906923 0.27040764689 0.4879938066 0.22706019878 0.49926742911
          0.20480594039 0.41156077385 0.19278217852 0.53517997265 0.16943560541 0.15698669851
          0.074843429029 0.084745407104 0.53614157438 0.068503879011 0.25499990582 0.16312564909
          0.38791692257 0.060672670603 0.58686101437 0.14138175547 0.36268469691 0.34860444069
          0.30483618379 0.16019225121 0.42061772943 0.10829319805 0.097418293357 0.42435929179
          0.24009755254 0.44423949718 0.18517555296 0.47779771686 0.58475065231 0.48142004013
          0.32575818896 0.19309389591 0.274448663 0.095576576889 0.38946521282 0.30015638471
          0.46031528711 0.36669635773 0.10945754498 0.43986240029 0.16477371752 0.16474977136
          0.18317513168 0.469540447 0.34250018001 0.37139874697 0.36238530278 0.35667660832
          0.4720389843 0.30190059543 0.48506474495 0.54931867123 0.33382537961 0.34132885933
          0.39916592836 0.14154924452 0.33286374807 0.50665396452 0.17404343188 0.089500889182
          0.14333465695 0.42024889588 0.50920706987 0.5231243968 0.33868670464 0.22807109356
          0.55824100971 0.18832240999 0.57723861933 0.48351326585 0.57009357214 0.55908614397
          0.5162576437 0.29253795743 0.43030926585 0.29332178831 0.49597907066 0.10702053457
          0.12280554324 0.26524725556 0.16822379827 0.54606223106 0.20400618017 0.27003443241
          0.56833827496 0.53165185452 0.27434083819 0.23003685474 0.29195541143 0.28792703152
          0.24266798794 0.26047703624 0.10243914276 0.54322189093 0.48791363835 0.29993617535
          0.41826766729 0.41206464171 0.48383566737 0.080174304545 0.094078376889 0.10165463388
          0.095793880522 0.31908968091 0.078898340464 0.14299309254 0.52600842714 0.28437665105
          0.072790063918 0.18645678461 0.51347017288 0.45294603705 0.20725101233 0.55779600143
          0.56205046177 0.2662575841 0.077133737504 0.46240675449 0.27739059925 0.38326111436
          0.56515735388 0.39259910583 0.47748869658 0.49698987603 0.55750095844 0.42932984233
          0.57111978531 0.28652942181 0.39946839213 0.50180345774 0.13184610009 0.37606444955
          0.16852591932 0.40208411217 0.44572836161 0.30093842745 0.28714051843 0.46498051286
          0.51395738125 0.098226904869 0.29434621334 0.13303741813 0.18474568427 0.28411820531
          0.3157864511 0.45102658868 0.31698456407 0.2955647409 0.58318835497 0.37040042877
          0.29583024979 0.12901796401 0.079367153347 0.33726927638 0.36625909805 0.58373469114
          0.11098456383 0.35091003776 0.14989559352 0.28044778109 0.11067207158 0.17114467919
          0.39204448462 0.49059346318 0.45346483588 0.5072311759 0.33624720573 0.3683347106
          0.49305930734 0.56435537338 0.36948925257 0.4773055613 0.4428113699 0.46050724387
          0.26440063119 0.068833947182 0.56999289989 0.22741559148 0.3791026175 0.2222237885
          0.37292796373 0.21986863017 0.4005202949 0.10074739158 0.11314254254 0.19320531189
          0.27919998765 0.41145241261 0.45211338997 0.45865637064 0.5385363102 0.38039571047
          0.59030729532 0.070635162294 0.44470638037 0.45127528906 0.49239858985 0.58214074373
          0.1340200007 0.5373929143 0.3550195992 0.47423177958 0.44068667293 0.063151098788
          0.47260156274 0.33670696616 0.29823428392 0.23273165524 0.093582570553 0.34356942773
          0.46307316422 0.57689726353 0.1614010036 0.13183937967 0.45916107297 0.11292725056
          0.35226455331 0.37278556824 0.35757398605 0.3254006803 0.26475849748 0.15197499096
          0.36254435778 0.36459681392 0.31458696723 0.4550742507 0.56053000689 0.2058327049
          0.42843151093 0.28573703766 0.52792084217 0.069490514696 0.33969953656 0.41415435076
          0.25137346983 0.5232282877 0.27232596278 0.13463632762 0.33163607121 0.51988774538
          0.30410677195 0.56491416693 0.24158519506 0.25096806884 0.077321901917 0.21680179238
          0.1286598146 0.12038747221 0.37531903386 0.14723668993 0.38961991668 0.49578738213
          0.35539889336 0.074967473745 0.33566215634 0.10588742793 0.063768111169 0.46660196781
          0.47337907553 0.14642384648 0.58798068762 0.58444857597 0.52832573652 0.26889023185
          0.47914212942 0.52295780182 0.34846064448 0.062191430479 0.58666044474 0.14919023216
          0.17455969751 0.45735177398 0.075220450759 0.49947690964 0.58833104372 0.35300326347
          0.53930449486 0.34508103132 0.10825021565 0.34074372053 0.19401036203 0.11351293325
          0.4067799449 0.074279047549 0.39756408334 0.56588810682 0.42578867078 0.53526198864
          0.089056640863 0.22465248406 0.26726928353 0.18475557864 0.39273023605 0.41818019748
          0.56708675623 0.3271150291 0.19604754448 0.33338811994 0.34527406096 0.25960871577
          0.41082683206 0.35078528523 0.42456611991 0.1257122606 0.36155253649 0.55665796995
          0.29792398214 0.43848094344 0.22751322389 0.49966365099 0.14207552373 0.23437389731
          0.38843306899 0.36274012923 0.14230878651 0.26952981949 0.13506652415 0.098707556725
          0.13562442362 0.28465619683 0.43023982644 0.16102103889 0.065264433622 0.51894921064
          0.33585864305 0.32390061021 0.12058667839 0.4797025919 0.21014730632 0.54206681252
          0.44878524542 0.41608187556 0.49364390969 0.14265167713 0.45507070422 0.086469307542
          0.15976564586 0.11636776477 0.54747241735 0.34300285578 0.12237150967 0.58542621136
          0.5493580699 0.1373629868 0.12258972973 0.28884118795 0.10682523251 0.433018893
          0.20291861892 0.20463043451 0.40623804927 0.17599529028 0.13030160964 0.480327636
          0.58998972178 0.46927291155 0.11703755707 0.30120232701 0.55918705463 0.54543763399
          0.26286923885 0.4675951004 0.33115038276 0.1799467802 0.20285966992 0.24692769349
          0.48325550556 0.53189563751 0.40965944529 0.47083410621 0.47290384769 0.47138530016
          0.58168596029 0.58733379841 0.51320266724 0.53289783001 0.54611432552 0.31558519602
          0.36442103982 0.26771846414 0.19359703362 0.20930999517 0.30430886149 0.12936410308
          0.51865869761 0.21155843139 0.52357935905 0.42735680938 0.39327692986 0.093749307096
          0.44675466418 0.33875969052 0.17328794301 0.11237855256 0 0
          0 0 0 0 0 0
          0 0 0 0 0
        </DataArray>
        <DataArray type="Float32" Name="uz" format="ascii" RangeMin="0" RangeMax="0.5903185606">
          0.083491459489 0.1112735793 0.43317234516 0.5743418932 0.42398792505 0.35014718771
          0.26329633594 0.45805057883 0.335850209 0.14266562462 0.2317519784 0.18109965324
          0.57150667906 0.30337303877 0.2484369725 0.57452094555 0.084550328553 0.27989992499
          0.20567661524 0.20044241846 0.23700986803 0.57321983576 0.49720367789 0.070181891322
          0.51734769344 0.26871213317 0.3109575212 0.063606537879 0.52600860596 0.47717988491
          0.26468458772 0.53087466955 0.22752128541 0.34823617339 0.18330135942 0.13284809887
          0.36424294114 0.32192531228 0.50086820126 0.57493722439 0.40042370558 0.13587734103
          0.41255110502 0.37055462599 0.28600525856 0.28538316488 0.52293634415 0.33137881756
          0.24454125762 0.57125085592 0.55155164003 0.40293189883 0.37851455808 0.53451561928
          0.21400550008 0.45399099588 0.17965869606 0.074884168804 0.30305570364 0.25462859869
          0.06433724612 0.073842160404 0.29801952839 0.52432602644 0.22422082722 0.27346366644
          0.16383218765 0.060821287334 0.44949966669 0.31183159351 0.52539950609 0.47956863046
          0.33330446482 0.41297346354 0.11315893382 0.19124945998 0.57023096085 0.17434121668
          0.49702557921 0.41722810268 0.3535964489 0.129789114 0.46311405301 0.58796519041
          0.13269922137 0.18019630015 0.3329256475 0.46700194478 0.57270133495 0.42130231857
          0.51342850924 0.14789804816 0.58377122879 0.53493231535 0.57378917933 0.28248861432
          0.28821152449 0.57049000263 0.40154907107 0.51186549664 0.50698798895 0.37915229797
          0.14487075806 0.54231601954 0.45846632123 0.33796727657 0.53574812412 0.18006812036
          0.24759468436 0.068529099226 0.1822706759 0.36443310976 0.19393596053 0.086945533752
          0.1191033721 0.20966009796 0.15136602521 0.066535420716 0.1058382839 0.44393151999
          0.14596579969 0.19580745697 0.30894580483 0.53624081612 0.075082950294 0.22208526731
          0.065869145095 0.12975028157 0.46462187171 0.4057700634 0.26710802317 0.081600286067
          0.12215222418 0.089607208967 0.2449426353 0.28302696347 0.51190364361 0.30059126019
          0.1857727319 0.34295591712 0.45891308784 0.13347156346 0.099987618625 0.069263473153
          0.24429097772 0.28689524531 0.20538699627 0.33906885982 0.31205499172 0.323638767
          0.24041500688 0.56439512968 0.11688455939 0.34476268291 0.22900059819 0.082021087408
          0.34420901537 0.49102702737 0.2747066915 0.27335226536 0.37199452519 0.24389760196
          0.5522916317 0.29313340783 0.58074486256 0.46223783493 0.57037502527 0.19961960614
          0.53316831589 0.1379917562 0.36972090602 0.47294768691 0.1356626153 0.32263681293
          0.57679331303 0.23021540046 0.38859143853 0.20017187297 0.30572924018 0.40095102787
          0.23293350637 0.5868498683 0.41520479321 0.44012755156 0.31460440159 0.37241062522
          0.36840096116 0.13431639969 0.56167763472 0.1350209564 0.41491064429 0.074483513832
          0.11191022396 0.42326027155 0.20367641747 0.080053955317 0.47719553113 0.12858685851
          0.19636106491 0.073284946382 0.35150387883 0.36510121822 0.28778856993 0.064705871046
          0.33711534739 0.40909710526 0.17941425741 0.55016481876 0.40242901444 0.31915649772
          0.46634915471 0.14031858742 0.13335503638 0.064900010824 0.32931029797 0.55857378244
          0.5324254632 0.49644312263 0.38274171948 0.37007305026 0.061100866646 0.4996188283
          0.48729515076 0.51622611284 0.23878750205 0.39960578084 0.17297953367 0.41553112864
          0.3843806088 0.20962238312 0.48685711622 0.23647986352 0.37063479424 0.37279582024
          0.54896360636 0.42318797112 0.40098288655 0.57512235641 0.2758615911 0.28323876858
          0.55111145973 0.54274851084 0.08575823158 0.38562604785 0.23155552149 0.08626485616
          0.5191064477 0.38972678781 0.27345487475 0.47848978639 0.077954500914 0.57081753016
          0.45481210947 0.10517811775 0.53705888987 0.39767172933 0.50056248903 0.57335150242
          0.16554254293 0.35900568962 0.29297307134 0.44200891256 0.26789319515 0.093902692199
          0.40763789415 0.42840251327 0.45024862885 0.33227226138 0.54658901691 0.24588659406
          0.28083261847 0.5275375843 0.095621548593 0.32230821252 0.35094448924 0.2636603117
          0.38091814518 0.25972533226 0.18887230754 0.19638492167 0.55148887634 0.40650770068
          0.13267752528 0.38519445062 0.49121585488 0.5740661025 0.4627892971 0.44518136978
          0.26230821013 0.42005962133 0.20876659453 0.25292104483 0.55768507719 0.48966908455
          0.22703813016 0.15820476413 0.24639108777 0.15013347566 0.2081053853 0.19771632552
          0.11966499686 0.31694158912 0.11980384588 0.44079330564 0.34138700366 0.3353318572
          0.15237601101 0.31565198302 0.26950061321 0.2731539011 0.1498529911 0.31879302859
          0.25124713778 0.3605273664 0.37605181336 0.21577659249 0.43761509657 0.10971955955