<VTKFile type="UnstructuredGrid" version="1.0" byte_order="LittleEndian" header_type="UInt64">
  <UnstructuredGrid>
    <Piece NumberOfPoints="791" NumberOfCells="973">
      <PointData>
        <DataArray type="Float32" Name="ux" format="ascii" RangeMin="-0.50127011538" RangeMax="0.57560878992">
          -0.075513526797 -0.087167687714 -0.062511883676 -0.070716820657 -0.069284968078 -0.060917638242
          -0.084328204393 -0.096822962165 -0.11896681786 -0.11168926209 -0.096874892712 -0.11346470565
          -0.090583182871 -0.10942926258 -0.046414609998 -0.054975762963 -0.041084434837 -0.05211378634
          -0.095823399723 -0.11592701823 -0.097169704735 -0.11643791199 -0.1172093749 -0.03550151363
          -0.04348057881 -0.034145731479 -0.084322318435 -0.061050083488 -0.085660278797 -0.094389118254
          -0.069398149848 -0.096091344953 -0.10579124838 -0.056239582598 -0.063913464546 -0.034931100905
          -0.040922332555 -0.084244392812 -0.11677922308 -0.10294660181 -0.094814881682 -0.12986283004
          -0.11507945508 -0.090832382441 -0.10171941668 -0.077149666846 -0.086951360106 -0.056457418948
          -0.064202100039 -0.12877738476 -0.14309453964 -0.060625266284 -0.068875953555 -0.036286339164
          -0.04239647463 -0.026052240282 -0.030907137319 -0.1205221042 -0.13442991674 -0.050052806735
          -0.071304365993 -0.079306282103 -0.04545565322 -0.027126884088 -0.069691717625 -0.099045775831
          -0.086433976889 -0.075550794601 -0.063506089151 -0.044969048351 -0.10965067893 -0.048417977989
          -0.027162518352 -0.01875740476 -0.10230080038 -0.033430710435 -0.052764181048 -0.059958156198
          -0.029198767617 -0.012193953618 -0.051872488111 -0.079168722034 -0.067263565958 -0.057729646564
          -0.045955576003 -0.028504159302 -0.088593944907 -0.0316744335 -0.011426727287 -0.0041433116421
          -0.081173270941 -0.0080551067367 -0.025446651503 -0.032281383872 -0.0035742535256 0.011416865513
          -0.024289885536 -0.050051875412 -0.038529902697 -0.029635343701 -0.018824186176 -0.0027104003821
          -0.058366045356 -0.0053433030844 0.013407515362 0.019589360803 -0.051496259868 0.016536312178
          0.0021546154749 -0.0034332177602 0.02106051892 0.033954899758 0.0031749745831 -0.019617347047
          -0.0089157884941 -0.0020070904866 0.0079424185678 0.022380359471 -0.025688104331 0.020056560636
          0.037257805467 0.042337141931 -0.019234834239 0.042865104973 0.02959305793 0.024865383282
          0.046755820513 0.058378707618 0.029799355194 0.0080842990428 0.018731297925 0.024346238002
          0.034534435719 0.047814916819 0.0029730510432 0.045764941722 0.061873216182 0.066238716245
          0.0097069023177 0.066221103072 0.053526103497 0.049829855561 0.069465823472 0.080249361694
          0.052651386708 0.031451094896 0.042608160526 0.047274254262 0.05762148276 0.070504792035
          0.027694964781 0.068420387805 0.084241166711 0.087963059545 0.035275302827 0.090607561171
          0.081105485559 0.078772425652 0.093422025442 0.1013006717 0.079580813646 0.061853308231
          0.071954570711 0.074859768152 0.084144487977 0.094594299793 0.059639502317 0.09310246259
          0.10618592799 0.10837990046 0.067009061575 0.117795825 0.11414826661 0.11271736771
          0.12069558352 0.12401419878 0.11377343535 0.1022272557 0.10914318264 0.11022718996
          0.11621967703 0.12266454101 0.10225408524 0.12244915217 0.1306514293 0.13025745749
          0.10745151341 0.13752047718 0.14018689096 0.14074276388 0.13945479691 0.13738539815
          0.13982181251 0.13752049208 0.1401103586 0.13813768327 0.14019337296 0.14143165946
          0.14041431248 0.14193879068 0.14396384358 0.14142674208 0.14255367219 0.13565951586
          0.14572635293 0.14872016013 0.1358409822 0.1274035573 0.14495036006 0.15398938954
          0.1512131542 0.14614191651 0.14294987917 0.13720409572 0.15954063833 0.1391376555
          0.13275413215 0.12764725089 0.15832175314 0.11689128727 0.13319696486 0.13836249709
          0.11524449289 0.10137312859 0.13291150331 0.15238186717 0.14418849349 0.1370947361
          0.12837894261 0.11660347134 0.16034339368 0.11997133493 0.10549794883 0.097747415304
          0.15519738197 0.087109334767 0.109319143 0.1168512255 0.083772428334 0.064434945583
          0.10865025222 0.13661177456 0.1245200485 0.11421286315 0.10226500034 0.08475574851
          0.14725440741 0.089248873293 0.068331889808 0.058156084269 0.14012226462 0.046913456172
          0.075000837445 0.084681890905 0.042729437351 0.018241228536 0.074779637158 0.11005390435
          0.094505690038 0.082708820701 0.066247045994 0.04395538196 0.12268768996 0.050395209342
          0.022989628837 0.009919279255 0.11367607117 0.007178011816 0.039260003716 0.050028443336
          0.0019219361711 -0.026384437457 0.038693446666 0.079328849912 0.061292730272 0.048065170646
          0.028894605115 0.0036020975094 0.093906573951 0.01087896619 -0.02138290368 -0.036661192775
          0.0833023265 -0.028933398426 0.0060410564765 0.018469424918 -0.035725697875 -0.06670473516
          0.0053890384734 0.052366476506 0.031089078635 0.016271052882 -0.0057580512948 -0.035177223384
          0.06770272553 -0.027532549575 -0.063736796379 -0.079271569848 0.055347997695 -0.061046086252
          -0.024770354852 -0.01238416601 -0.068269439042 -0.10008963943 -0.025326032192 0.024636549875
          0.0016919454793 -0.013736909255 -0.036870706826 -0.067820802331 0.040256470442 -0.060161877424
          -0.098432041705 -0.11412802339 0.026273023337 -0.091075100005 -0.05450072512 -0.042318981141
          -0.098296388984 -0.13009700179 -0.054353587329 -0.0032561828848 -0.027343822643 -0.042485497892
          -0.066693164408 -0.098003767431 0.012120917439 -0.090319350362 -0.12934917212 -0.14484664798
          -0.002703567734 -0.12064927816 -0.083992645144 -0.07144767791 -0.12848316133 -0.16060189903
          -0.084473952651 -0.032510984689 -0.0567936562 -0.072332859039 -0.096476584673 -0.12855528295
          -0.017253484577 -0.12123966217 -0.1603821516 -0.1756054759 -0.032116349787 -0.061601195484
          -0.089694611728 -0.096209160984 -0.059260763228 -0.035766970366 -0.091929323971 -0.12695747614
          -0.1099781394 -0.10107881576 -0.082730472088 -0.061889670789 -0.1373744756 -0.068962872028
          -0.041660144925 -0.028709372506 -0.12592484057 -0.082040533423 -0.10962349176 -0.08921469748
          -0.076680734754 -0.059443172067 -0.063114486635 -0.043161481619 0.054981634021 0.015804257244
          0.0022036395967 0.14049179852 0.096705928445 0.081607989967 0.062377899885 0.15024349093
          0.09649130702 0.18900227547 0.016213199124 -0.035931121558 -0.012544233352 0.096910707653
          0.03513404727 0.064332686365 0.0049293157645 0.081434376538 0.028697840869 0.11154657602
          0.061381094158 0.150348261 -0.05368187651 0.017529457808 0.053427681327 0.14045113325
          0.093628436327 0.18911130726 0.11055932194 0.20784907043 -0.039723742753 0.035019524395
          0.20435233414 0.15988510847 0.14376556873 0.21558097005 0.25521406531 0.15954168141
          0.093916028738 0.12600271404 0.1422483176 0.17555317283 0.21600283682 0.077269278467
          0.20520068705 0.25716215372 0.27615737915 0.096230871975 0.23228944838 0.18537765741
          0.16819623113 0.24468830228 0.28706479073 0.18427875638 0.11403191835 0.14913378656
          0.16574384272 0.20178332925 0.24510364234 0.096871346235 0.23331522942 0.28946533799
          0.31010740995 0.11767612398 0.2093565017 0.15973314643 0.14190785587 0.22255241871
          0.2672996521 0.15874992311 0.083758987486 0.12098684907 0.13868163526 0.17700648308
          0.22332952917 0.065371714532 0.21079808474 0.27068787813 0.29176601768 0.087549239397
          0.13807933033 0.08452848345 0.066028147936 0.15101267397 0.1982100904 0.083732008934
          0.0045770965517 0.043238032609 0.063720293343 0.10279236734 0.1518881619 -0.015628660098
          0.13989020884 0.20166878402 0.22343237698 0.0082035250962 0.038773268461 -0.016149030998
          -0.034135062248 0.050650943071 0.098548345268 -0.017259113491 -0.097610965371 -0.05851893127
          -0.036902286112 0.0018970387755 0.051087930799 -0.1189070791 0.039762932807 0.10113664716
          0.12303306162 -0.094126202166 -0.064584665 -0.12041052431 -0.13857504725 -0.052845090628
          -0.004129760433 -0.12168657035 -0.203335464 -0.16382528841 -0.14152760804 -0.10222768784
          -0.052505601197 -0.22525790334 -0.06368920207 -0.0016171142925 0.020420236513 -0.1998077035
          -0.15960797668 -0.21713450551 -0.23528806865 -0.14817097783 -0.098617225885 -0.2176232785
          -0.30032336712 -0.26061964035 -0.23715403676 -0.19813132286 -0.14757308364 -0.32320520282
          -0.15879285336 -0.09638954699 -0.074071504176 -0.29771694541 -0.23927502334 -0.30072271824
          -0.32000181079 -0.22774782777 -0.17496699095 -0.30109527707 -0.38842645288 -0.34702154994
          -0.32134246826 -0.28111720085 -0.22765667737 -0.41322174668 -0.23947679996 -0.17428705096
          -0.15040190518 -0.38670632243 -0.29262667894 -0.35839560628 -0.37845891714 -0.28100675344
          -0.22491206229 -0.35836538672 -0.45059400797 -0.40720662475 -0.37896552682 -0.33718839288
          -0.28115043044 -0.4779061079 -0.29307606816 -0.22541460395 -0.19961814582 -0.45007202029
          -0.3123832345 -0.37967947125 -0.40017160773 -0.30099669099 -0.24356545508 -0.37975049019
          -0.47322770953 -0.42943865061 -0.40056827664 -0.35843890905 -0.30134081841 -0.50127011538
          -0.31316444278 -0.24461762607 -0.21828609705 -0.4732530117 -0.28850138187 -0.35239630938
          -0.37215965986 -0.27816203237 -0.22341910005 -0.35272330046 -0.43925333023 -0.39922603965
          -0.37142503262 -0.33246260881 -0.27887585759 -0.46641975641 -0.29064321518 -0.22601129115
          -0.20012640953 -0.44101667404 -0.22548726201 -0.28282576799 -0.30080413818 -0.21558961272
          -0.16634081304 -0.28243741393 -0.36084085703 -0.32479923964 -0.29973161221 -0.26443901658
          -0.21628601849 -0.3858667016 -0.22708532214 -0.16862608492 -0.14540271461 -0.36295208335
          -0.13097526133 -0.18522499502 -0.20275482535 -0.12139605731 -0.074149116874 -0.18494820595
          -0.25872039795 -0.22473433614 -0.20142629743 -0.16766946018 -0.12204185873 -0.28206577897
          -0.13239569962 -0.076565846801 -0.054013587534 -0.26095923781 -0.017330514267 -0.070545963943
          -0.087978452444 -0.0076425410807 0.038410492241 -0.070702664554 -0.1437010169 -0.10978101939
          -0.087234854698 -0.053453631699 -0.0083410786465 -0.16654549539 -0.019151899964 0.036176215857
          0.058319576085 -0.14542210102 0.1085056141 0.055994395167 0.038632497191 0.11811742932
          0.16380624473 0.055102739483 -0.016843479127 0.016922550276 0.038238964975 0.072534367442
          0.11709104478 -0.038705512881 0.10573461652 0.16129866242 0.18353323638 -0.017881788313
          0.23991812766 0.18874412775 0.17198505998 0.24985429645 0.29435878992 0.18831066787
          0.11703044921 0.15073756874 0.17114524543 0.20518968999 0.24919620156 0.096216902137
          0.23828886449 0.29290220141 0.31443747878 0.11685030907 0.37124967575 0.3204613328
          0.30361455679 0.38152626157 0.42564687133 0.3201879859 0.24911397696 0.28263193369
          0.30318713188 0.33695459366 0.38090720773 0.22832964361 0.37008827925 0.42455333471
          0.44593986869 0.24890938401 0.50048357248 0.4501132369 0.4332819581 0.51102119684
          0.55485218763 0.45033296943 0.37905082107 0.4127330482 0.43326342106 0.46705123782
          0.5112849474 0.35839626193 0.5007827878 0.55516183376 0.57560878992 0.37924662232
          -0.051970526576 -0.068361960351 -0.087163746357 -0.032944384962 -0.016421280801 -0.049128007144
          -0.084197588265 -0.07905998081 -0.046983573586 -0.05002867803 -0.020870480686 -0.10857380182
          -0.011858783662 0.0085842031986 0.0068072206341 -0.10923932493 -0.075468584895 -0.10128454119
          -0.075292050838 -0.07530246675 -0.054522551596 -0.048986200243 -0.033230368048 -0.11851674318
          -0.12280537933 -0.11869712174 -0.10821510851 -0.11035497487 -0.10878420621 -0.10270843655
          -0.095554098487 -0.094889111817 -0.085661478341 -0.086370185018 -0.081874243915 -0.096810355783
          -0.11238931865 -0.11491258442 -0.11444023997 -0.11066158116 -0.11074895412 -0.10836470127
          -0.10799874365 -0.10560265183 -0.10524705052 -0.10177697986 -0.10249977559 -0.10092996806
          -0.10483131558 -0.094688147306 -0.095835387707 -0.097215294838 -0.097092755139 -0.09650208056
          -0.094656296074 -0.096980437636 -0.097075633705 -0.097114659846 -0.097128331661 -0.09731939435
          -0.09725625813 -0.095804400742 -0.064988099039 -0.065033897758 -0.066486790776 -0.068460695446
          -0.067504413426 -0.066021710634 -0.068944171071 -0.070420332253 -0.069999076426 -0.071545958519
          -0.070370525122 -0.071709014475 -0.06817946583 -0.023955859244 -0.022722540423 -0.024183770642
          -0.028716366738 -0.025826230645 -0.026399271563 -0.027799924836 -0.032512549311 -0.029512699693
          -0.032618865371 -0.029708366841 -0.031549673527 -0.02857016772 -1.47665144e-10 8.9354967869e-10
          -4.0946135371e-11 1.5330767905e-11 5.8332921826e-11 1.9016960316e-12 -9.6457061088e-12 3.9863423706e-14
          5.2018641266e-14 0 0 0 3.13588348e-13
        </DataArray>
        <DataArray type="Float32" Name="uy" format="ascii" RangeMin="-1.1260076761" RangeMax="1.9005334377">
          0.00059677491663 0.012731892057 0.018693514168 0.035400345922 0.074626520276 0.083498992026
          0.08185069263 0.00039359167567 0.0090743927285 0.015753990039 0.034468628466 0.079610727727
          0.073725797236 0.0606999062 0.0095827579498 0.016568090767 0.081441119313 0.062270585448
          0.030302247033 0.043548122048 0.08452655375 0.031095638871 0.084033578634 0.083981111646
          0.044910836965 0.028293156996 0.033575240523 0.033738579601 0.008337748237 0.03329025954
          0.16381153464 0.13588479161 0.16371561587 -0.00061335013015 0.1259893626 0.013890601695
          0.1423664391 -0.039798092097 -0.047441411763 -0.016947263852 0.08268789947 0.073851242661
          0.10792608559 -0.063628919423 0.056377504021 -0.015870310366 0.10923168808 -0.030321121216
          0.09356225282 -0.018859758973 0.10594014078 -0.062575854361 0.057561017573 -0.044788487256
          0.076795846224 -0.016418924555 0.10886254907 0.01244488731 0.14104828238 -0.12974071503
          -0.15220779181 -0.13011848927 -0.16033552587 -0.14691157639 -0.19553376734 -0.20251899958
          -0.17492040992 -0.21715754271 -0.17389656603 -0.1866401583 -0.17657500505 -0.21591572464
          -0.19984611869 -0.17385235429 -0.14832238853 -0.31604415178 -0.33691850305 -0.31661951542
          -0.34361928701 -0.33134192228 -0.37706255913 -0.38358539343 -0.35795149207 -0.39764297009
          -0.35686317086 -0.36828303337 -0.35923197865 -0.39606150985 -0.38005250692 -0.35548833013
          -0.33326148987 -0.51131302118 -0.53032374382 -0.5121319294 -0.5365229845 -0.52448087931
          -0.56721580029 -0.57244372368 -0.54944574833 -0.58581781387 -0.54866439104 -0.55886507034
          -0.5499266386 -0.58445978165 -0.56920349598 -0.5463539958 -0.52706861496 -0.70271646976
          -0.71899610758 -0.70374119282 -0.7241846323 -0.71324437857 -0.75109183788 -0.75468933582
          -0.73493880033 -0.7677500844 -0.73448097706 -0.74409419298 -0.7344930172 -0.76721847057
          -0.75341635942 -0.73259955645 -0.71541059017 -0.86770009995 -0.88257986307 -0.86823290586
          -0.88727355003 -0.8771546483 -0.91279351711 -0.91568952799 -0.89726918936 -0.92851144075
          -0.89728045464 -0.90607339144 -0.89641612768 -0.92820006609 -0.9145706892 -0.89462178946
          -0.87852442265 -0.99410128593 -1.0075659752 -0.99435514212 -1.012081027 -1.0023847818
          -1.0359760523 -1.0383714437 -1.0211929083 -1.0516078472 -1.0212519169 -1.0296670198
          -1.0193793774 -1.0513379574 -1.0377533436 -1.0182243586 -1.0032782555 -1.0769277811
          -1.0873063803 -1.077198863 -1.0903937817 -1.0824443102 -1.1103597879 -1.1116162539
          -1.0975946188 -1.1233832836 -1.0981318951 -1.1046689749 -1.0957026482 -1.1229145527
          -1.110788703 -1.0944370031 -1.0830322504 -1.0983091593 -1.103749752 -1.0986946821
          -1.1055301428 -1.1001460552 -1.1175167561 -1.1171097755 -1.1090829372 -1.1256569624
          -1.1101498604 -1.1143225431 -1.1067801714 -1.1260076761 -1.1174602509 -1.1068488359
          -1.1004039049 -1.0491070747 -1.048807621 -1.0506043434 -1.0472971201 -1.0452110767
          -1.0493783951 -1.0475106239 -1.0478506088 -1.0511921644 -1.0481860638 -1.0484263897
          -1.0456311703 -1.0516693592 -1.0481081009 -1.0444977283 -1.0478399992 -0.9325529933
          -0.92476564646 -0.9337927103 -0.92018854618 -0.9234021306 -0.9095813036 -0.90620720387
          -0.91610610485 -0.90298551321 -0.91650354862 -0.91163682938 -0.91446310282 -0.90340673923
          -0.90639150143 -0.91317558289 -0.92609316111 -0.7582256794 -0.74330568314 -0.75932061672
          -0.73613291979 -0.74428856373 -0.71278083324 -0.70771414042 -0.72730445862 -0.69839161634
          -0.72770363092 -0.71789807081 -0.72606945038 -0.69891494513 -0.70831388235 -0.724827528
          -0.74635636806 -0.53875762224 -0.51718074083 -0.53966856003 -0.50793421268 -0.51995068789
          -0.47402927279 -0.46765834093 -0.49497711658 -0.45354223251 -0.49503728747 -0.48164963722
          -0.49336522818 -0.45383948088 -0.46772497892 -0.49240666628 -0.52173680067 -0.27292302251
          -0.24544396996 -0.27323454618 -0.23436625302 -0.24988180399 -0.19187809527 -0.18417197466
          -0.21754315495 -0.16611020267 -0.21835640073 -0.20139993727 -0.21581162512 -0.16601872444
          -0.18401958048 -0.21542981267 -0.25046598911 0.049817800522 0.082183651626 0.049679554999
          0.094956204295 0.076340250671 0.14466117322 0.15302799642 0.11459085345 0.17421068251
          0.11405980587 0.13396804035 0.1160029918 0.17488153279 0.15406991541 0.11689244956
          0.07596155256 0.43093597889 0.46623623371 0.43077272177 0.48032706976 0.45942220092
          0.53576529026 0.54478210211 0.50165784359 0.56985771656 0.5015938282 0.52325886488
          0.50287783146 0.56994992495 0.54540580511 0.50370645523 0.4591011703 0.85416823626
          0.89147824049 0.85440987349 0.90582793951 0.88322985172 0.96512752771 0.97432947159
          0.9285723567 1.0015269518 0.92851006985 0.95142680407 0.92937493324 1.0014072657
          0.97448271513 0.92954188585 0.88333034515 1.2982096672 1.3356924057 1.2981140614
          1.3502225876 1.3272231817 1.4105273485 1.4197255373 1.3733389378 1.4477096796
          1.3732905388 1.3963834047 1.3738541603 1.4475114346 1.4193564653 1.3734425306
          1.3269046545 1.7502369881 1.7878595591 1.7502658367 1.8025797606 1.7793869972
          1.8629584312 1.8717530966 1.8251237869 1.9004399776 1.8255008459 1.8487046957
          1.8251484632 1.9005334377 1.8720555305 1.8260374069 1.7788268328 0.22219085693
          0.18872375786 0.2218772471 0.17677381635 0.19649620354 0.12829889357 0.11906244606
          0.15660531819 0.099416770041 0.15782849491 0.13981412351 0.15513290465 0.10032851249
          0.12123768032 0.15723897517 0.19501650333 0.085558608174 0.086236447096 0.08556252718
          0.084652431309 0.084834232926 0.084302544594 0.083871662617 0.00016247437452 0.040933474898
          -6.8440887844e-05 0.14837568998 0.19389057159 0.14937894046 0.056311886758 0.2105564326
          0.031794924289 0.18225719035 0.11967484653 0.12989476323 0.081423833966 0.28357365727
          0.29357475042 0.23878549039 0.15759493411 0.32841432095 0.080856509507 0.23852209747
          0.10469182581 0.26659917831 0.082048818469 0.23859727383 0.15707269311 0.32942584157
          0.12835302949 0.29495128989 0.08105866611 0.23824109137 0.031638022512 0.18385489285
          0.30108883977 0.34887802601 0.30263820291 0.36632552743 0.33587726951 0.44275540113
          0.45177724957 0.39510720968 0.48985677958 0.39578542113 0.42545554042 0.39403787255
          0.49200567603 0.45519331098 0.39498236775 0.33772522211 0.42118820548 0.47270345688
          0.42338973284 0.4910697937 0.4577139914 0.57401883602 0.58271348476 0.52230226994
          0.62421578169 0.52316510677 0.55520021915 0.52049010992 0.62693852186 0.58750092983
          0.52173453569 0.46081593633 0.498619169 0.55311322212 0.50068825483 0.57237893343
          0.53719586134 0.66083872318 0.6709753871 0.60605615377 0.71497064829 0.60665988922
          0.64049583673 0.60466694832 0.7173884511 0.67475670576 0.60469919443 0.54053020477
          0.53438204527 0.59102278948 0.53572762012 0.61195665598 0.57557016611 0.7040514946
          0.71507871151 0.64625352621 0.76115500927 0.64715880156 0.68250918388 0.64483243227
          0.76254189014 0.71779888868 0.64540052414 0.57713037729 0.53176832199 0.58886688948
          0.53197932243 0.61015856266 0.57382076979 0.70379370451 0.71564668417 0.64556348324
          0.76179540157 0.64614140987 0.68147879839 0.6440141201 0.76205986738 0.71651983261
          0.64390283823 0.57400709391 0.48135140538 0.53845787048 0.48089817166 0.56051450968
          0.52427208424 0.65562587976 0.66861224174 0.59636664391 0.71504545212 0.59678632021
          0.63268095255 0.5945699811 0.71494138241 0.66837370396 0.59517288208 0.52321618795
          0.38995221257 0.44768482447 0.3888079524 0.4705375731 0.43437683582 0.56619727612
          0.57992261648 0.50614875555 0.62648564577 0.50672495365 0.5434718132 0.50504916906
          0.62586629391 0.57948577404 0.50637966394 0.43235698342 0.27193182707 0.33284062147
          0.27055305243 0.357347399 0.31958758831 0.4575920701 0.47244513035 0.39471715689
          0.52075910568 0.39516985416 0.43369624019 0.39366483688 0.51976764202 0.47138610482
          0.3952460289 0.31664302945 0.13833773136 0.20303058624 0.13616918027 0.22974711657
          0.18989829719 0.3358412981 0.35203441978 0.26906621456 0.40267059207 0.26987785101
          0.3106764853 0.26848089695 0.40107432008 0.35026964545 0.27047893405 0.1855738014
          0.0052699721418 0.070964850485 0.0029785090592 0.097959272563 0.058045621961 0.20596006513
          0.22314120829 0.13835965097 0.27400168777 0.13863532245 0.18014968932 0.13853643835
          0.27227863669 0.22071862221 0.13998427987 0.053792145103 -0.10697089136 -0.043924801052
          -0.10874351114 -0.018908930942 -0.056809768081 0.083310730755 0.1000059545 0.02042048797
          0.14661538601 0.019823543727 0.058734498918 0.021180806682 0.14498998225 0.097289308906
          0.020845284685 -0.059588387609 -0.18985201418 -0.13316340744 -0.19146589935 -0.1105196476
          -0.14460937679 -0.018203159794 -0.0027751435991 -0.075209721923 0.039460495114 -0.075678125024
          -0.040366694331 -0.074158534408 0.037733379751 -0.0052876598202 -0.074292100966 -0.14712737501
          -0.24809658527 -0.19397805631 -0.24912573397 -0.17234133184 -0.20489951968 -0.085059352219
          -0.071026347578 -0.13897833228 -0.031150756404 -0.13919433951 -0.10558257997 -0.13822889328
          -0.031894132495 -0.07219324261 -0.13774599135 -0.20681287348 -0.28438308835 -0.23109689355
          -0.28519070148 -0.20998539031 -0.24203084409 -0.12410388887 -0.1102873981 -0.17696011066
          -0.070806927979 -0.17720715702 -0.14422339201 -0.17631597817 -0.071370363235 -0.11140882969
          -0.1762047708 -0.24367690086 -0.3005335331 -0.24748286605 -0.3012983799 -0.2267857641
          -0.25888600945 -0.14160221815 -0.12859325111 -0.19400335848 -0.089407302439 -0.19414098561
          -0.16161975265 -0.19363301992 -0.089385062456 -0.12904188037 -0.19354626536 -0.26005041599
          -0.29700934887 -0.24518974125 -0.29737472534 -0.22469393909 -0.25656488538 -0.1415156126
          -0.12926967442 -0.19309262931 -0.09027261287 -0.19319631159 -0.16099813581 -0.19270856678
          -0.089866928756 -0.12850511074 -0.19206240773 -0.25725394487 -0.28137856722 -0.2292932421
          -0.28118240833 -0.20935356617 -0.24165038764 -0.12595809996 -0.11386523396 -0.1772929281
          -0.074521273375 -0.17750820518 -0.1455052346 -0.17724145949 -0.074576959014 -0.11333764344
          -0.17746166885 -0.24122734368 -0.2614646256 -0.21010927856 -0.26151823997 -0.19042384624
          -0.22230094671 -0.10727804154 -0.095155060291 -0.15869870782 -0.055468630046 -0.15895955265
          -0.12708847225 -0.15870307386 -0.055565465242 -0.095233671367 -0.15888091922 -0.22196778655
          -0.088950283825 -0.04839387536 -0.089855208993 -0.033133216202 -0.05760877952 0.032326821238
          0.044164564461 -0.0070180962794 0.07253844291 -0.0079858116806 0.015780556947 -0.0060544768348
          0.070474728942 0.039864458144 -0.0085797775537 -0.058028250933 0.048195946962 0.0543519333
          0.067977949977 0.029681047425 0.039669334888 0.0655131042 0.049634996802 0.0015920150327
          -0.0098020257428 -0.021499978378 -0.029110854492 -0.010375557467 0.0078395316377 -0.010677552782
          -0.029425747693 -0.010862160474 -0.022376909852 0.00073350721505 -0.011003266089 0.0075893006288
          -0.04265177995 -0.046904388815 -0.051754813641 -0.054838709533 -0.047684248537 -0.040929269046
          -0.047856532037 -0.054445184767 -0.047569103539 -0.050721492618 -0.043516371399 -0.046740468591
          -0.041404712945 -0.054376348853 -0.053412400186 -0.054057125002 -0.054985698313 -0.054911542684
          -0.056115783751 -0.055412512273 -0.055000983179 -0.055693022907 -0.05470270291 -0.056281238794
          -0.055346172303 -0.056950949132 -0.038307685405 -0.036365173757 -0.034948121756 -0.034231163561
          -0.037289552391 -0.040333904326 -0.037741176784 -0.034708529711 -0.038022909313 -0.036145161837
          -0.040433265269 -0.038320358843 -0.041209876537 -0.016176844016 -0.013103100471 -0.0095790233463
          -0.0083649428561 -0.012810387649 -0.016700342298 -0.012988893315 -0.010415847413 -0.013305192813
          -0.013320608996 -0.014892936684 -0.014580824412 -0.015688905492 1.1680318171e-11 1.3146298286e-11
          -2.964250026e-11 1.1073698382e-11 -6.6810853724e-12 -5.221475162e-12 -1.5070990246e-12 -2.3998004647e-13
          -2.2909967109e-13 0 0 0 5.5922849901e-13
        </DataArray>
        <DataArray type="Float32" Name="uz" format="ascii" RangeMin="-0.18852584064" RangeMax="0.32032492757">
          -0.012629517354 -0.024096697569 -0.0092968111858 -0.016502000391 -0.023400010541 -0.021727511659
          -0.030174046755 -0.026050284505 -0.044491000473 -0.038184151053 -0.031408250332 -0.040322385728
          -0.033891994506 -0.041611034423 0.0035396819003 -0.0039553516544 -0.014722215012 -0.013264996
          -0.035797826946 -0.044090978801 -0.033382292837 -0.0502862297 -0.040970399976 -0.014325176366
          -0.0052655888721 0.0056441156194 -0.023868987337 -0.026853436604 0.012382880785 0.021405598149
          -0.022542810068 0.0049234172329 0.013518806547 -0.030001655221 -0.027502663434 -0.063907571137
          -0.051142837852 0.018181951717 0.070753745735 0.042153123766 0.0049329786561 0.042396165431
          0.025150068104 0.034093599766 0.013571081683 0.003112411825 -0.003925438039 -0.026761086658
          -0.027096124366 0.081656426191 0.054209828377 -0.015250728466 -0.021487576887 -0.05717754364
          -0.050258815289 -0.075556986034 -0.061916008592 0.062607623637 0.043155446649 -0.026958044618
          0.020999602973 0.031721446663 -0.030221933499 -0.071283005178 0.030014488846 0.09375769645
          0.058308485895 0.048917185515 0.010843075812 -0.024894919246 0.10659021884 -0.01024035085
          -0.061149541289 -0.084338523448 0.082453563809 -0.025713272393 0.028811691329 0.039021618664
          -0.027054676786 -0.073355749249 0.041380058974 0.1120004952 0.071424648166 0.063918963075
          0.018936321139 -0.019251765683 0.12451803684 -0.001046407735 -0.058108430356 -0.085494071245
          0.096450306475 -0.020060667768 0.036402571946 0.045459330082 -0.019260667264 -0.067160852253
          0.052169132978 0.12294466794 0.080575399101 0.076221622527 0.028056038544 -0.0094109829515
          0.13355866075 0.010987274349 -0.047781303525 -0.077515885234 0.10402874649 -0.0090353954583
          0.043805938214 0.051483012736 -0.0076354588382 -0.051950555295 0.05844847858 0.12397175282
          0.084655500948 0.080756738782 0.03619678691 0.001588431187 0.13373124599 0.020530780777
          -0.033952523023 -0.061353672296 0.1060988605 0.0035517963115 0.047843534499 0.053349398077
          0.0052666901611 -0.031782533973 0.060462851077 0.11450889707 0.081972569227 0.079135715961
          0.041750751436 0.013235038146 0.1223622784 0.029561718926 -0.015425717458 -0.038869090378
          0.09894476831 0.013815611601 0.046994525939 0.049168530852 0.017899286002 -0.0093419225886
          0.060115158558 0.098275892437 0.073085032403 0.075089298189 0.045039262623 0.026515867561
          0.10140623897 0.04043411836 0.0073297368363 -0.01157281734 0.082611516118 0.023072889075
          0.042099118233 0.038306329399 0.031287800521 0.016000505537 0.057360433042 0.075203604996
          0.057908020914 0.069163948298 0.045897547156 0.040995761752 0.070329882205 0.054163642228
          0.035685002804 0.020995980129 0.056329146028 0.037164449692 0.038085374981 0.028457380831
          0.048688046634 0.049692127854 0.052339430898 0.045013073832 0.040223550051 0.058064453304
          0.047377303243 0.057648163289 0.033318344504 0.066812992096 0.068211831152 0.061515424401
          0.027040347457 0.059331811965 0.038126550615 0.025813335553 0.069800272584 0.089735068381
          0.045167118311 0.010666203685 0.023167444393 0.040167015046 0.050060845912 0.07416087389