<VTKFile type="UnstructuredGrid" version="1.0" byte_order="LittleEndian" header_type="UInt64">
  <UnstructuredGrid>
    <Piece NumberOfPoints="791" NumberOfCells="973">
      <PointData>
        <DataArray type="Float32" Name="ux" format="ascii" RangeMin="-0.0024028215557" RangeMax="0.0036591175012">
          0.00084175448865 0.00035078873043 -0.00063593237428 0.0008791158325 -0.00045743043302 -0.00063239445444
          0.0002796886547 -0.00025622741668 0.00015988911036 0.00027046076139 0.00077023578342 0.00017189749633
          -0.00018153765996 1.2229085769e-05 0.00031414060504 -0.00043866835767 -0.00032577768434 0.00043792568613
          0.00075841275975 0.00014141763677 -0.00045751058497 -2.6746647563e-05 0.00045572427916 -8.9247136202e-05
          0.00041225971654 0.0001242874423 0.00018318909861 -0.0003620905627 0.0023506016005 -0.0015223616501
          -0.00061741302488 0.0036591175012 -0.0021332511678 -0.0017734222347 -0.0014876959613 0.00090504204854
          0.00015702222299 0.00089658645447 0.00033997287392 -0.00049816386309 0.0012964138296 0.00020175907412
          -0.0009343350539 0.00013439804025 0.00026213593083 -0.0014355796156 -0.0021202173084 0.0021125359926
          0.0023162188008 0.00026451505255 0.00014788711269 -0.00067892909283 -0.00042922844295 -0.00024346145801
          -0.00023649222567 -0.00034175938345 -6.9870002335e-05 -0.00034146479447 -4.9708967708e-05 -0.0010158976074
          0.00057041813852 -0.00082987360656 -0.0005117476685 0.00041031668661 -0.00023826006509 0.00095381384017
          0.00019356899429 0.00058122735936 -0.00038799303002 -0.00087632256327 0.0007366517093 8.7396176241e-05
          -8.488122694e-05 -0.0001725753682 0.00058430043282 -0.00056213070638 0.00023448707361 0.0007194695645
          0.00062310614157 -0.00063008861616 -0.0010719248094 0.00039897084935 0.00094515603269 0.00023235773551
          -0.0010129811708 -0.001564310398 0.00061116641155 -0.00049873994431 -0.00023006121046 -3.0563151086e-05
          -4.7692508815e-05 0.00018401019042 0.001172332326 -0.00015966397768 0.00059632019838 0.00017686256615
          -3.8939713704e-05 0.00011378458294 -0.00016478209 2.0699855668e-05 -0.00045430692262 -0.00031609315192
          0.00012770188914 9.0719011496e-05 0.00056661793496 -0.00020385082462 7.2043323598e-05 0.0015153822023
          0.0014507931191 0.00068218074739 0.00051144044846 0.00065632356564 0.0015019503189 -0.0011421144009
          -0.00015589311079 -0.0014246823266 -0.0011435463093 0.00084640138084 -0.00012832223729 -0.00041340696043
          -0.0002536153479 0.000233731771 -0.00030187037191 0.00080315029481 0.00036272621946 0.000253475504
          0.00023724178027 0.0004283435992 0.00025660826941 1.3546358559e-06 -0.001171692973 -0.0014488142915
          -0.00030523203895 -0.00054388592253 -0.00033399349195 -0.00035697285784 -0.00039086767356 0.00055042927852
          9.9993430922e-06 7.7247668742e-06 -0.0012498318683 0.0010910270503 -0.00029190591886 -0.00027509374195
          0.00016136058548 0.00040430258377 0.0014479617821 0.00070432684151 -0.00012366226292 0.00031597452471
          0.00023770581174 -0.0001464218949 -0.00066270603565 -2.408763612e-05 -0.00038051136653 -0.00027443785802
          -0.00059382716427 0.00053467956604 -0.00014020549133 -2.7179527024e-05 0.000628555601 0.00010831867985
          -0.00023239417351 6.270371523e-05 -0.0011290825205 0.00033826127765 -0.00037340764538 -0.00097245839424
          -0.0012378335232 -0.00070548581425 -0.00062100461219 0.0008336052997 -0.00078414566815 0.00039904762525
          4.3200539949e-05 0.00047868094407 0.0012869790662 0.00022099466878 0.00021601599292 -0.00028382780147
          -0.00034355506068 0.001078930567 -8.0157733464e-05 -0.0011734779691 -0.0011688768864 -0.00010299761198
          -1.4495194591e-05 0.00048277739552 -0.00072769145481 0.00062872254057 -2.0942601623e-05 0.00068396504503
          -0.00072920619277 -0.00014933805505 -0.00034198944923 -0.00037942943163 0.001155570033 -0.00055775017245
          -0.00025740338606 -0.00029908074066 0.00043188745622 -0.00024789560121 6.3136008976e-05 0.00027668609982
          -0.00018067928613 0.00016480726481 -0.0010339365108 0.00074079830665 -0.0024028215557 -0.00016183681146
          0.00076680758502 0.00037992239231 0.001802836312 -0.0014367689146 4.8250160035e-05 0.00069954362698
          0.0010098968633 -0.00054626475321 0.00011922130216 -0.0002407135471 0.0010563462274 -0.00037071679253
          0.00057517085224 -0.00039784811088 -0.001067650388 0.00016816948482 0.0015085772611 6.6987122409e-05
          -0.00099799828604 -0.0016012914712 -2.4336515708e-05 9.402041178e-05 0.00030815260834 -0.00033744086977
          -0.0002482374839 -0.00038051381125 0.00050323479809 5.5514949054e-05 0.0011699715396 -0.00043496050057
          0.00015342752158 9.2589587439e-05 0.00097736739554 0.00062471511774 -0.00053406559164 -0.00081831315765
          8.9718276286e-05 0.00033060117858 0.00018156431906 5.5411714129e-05 -0.00017452938482 -0.00096570135793
          -0.00012220046483 -0.00081331189722 0.0016433191486 -5.5107389926e-05 0.0013427778613 -3.0066230465e-05
          8.665065252e-06 0.00024627143284 -0.001095940941 0.00043029413791 -0.00035300743184 0.00083033664851
          0.00074952351861 0.00064554129494 -0.00055697414791 -0.00090077600908 -0.0007732246886 -0.00019659529789
          0.00045341585064 -0.00056649924954 0.00021385753644 0.00029723800253 -0.00081535970094 -0.00067308580037
          -0.00016175332712 -0.00045557206613 -0.00028246245347 -0.00042726533138 -0.00017372590082 -9.4087765319e-05
          -0.00032648938941 0.00013653158385 0.00037190190051 -0.00017514526553 -0.00021795606881 2.4136106731e-05
          4.3028656364e-05 0.00065192487091 0.00029543178971 0.00096711178776 0.00038833759027 0.0012966141803
          0.00042249143007 -0.00068346509943 0.00026888833963 0.00019527907716 0.00074529350968 0.00032076990465
          -0.00051479338435 0.00079685403034 0.00064668664709 -0.0002271279518 -0.00096121063689 -0.00017500537797
          0.00066539802356 0.00040838020504 0.00012348529708 -0.00062226341106 0.00045429758029 -0.00056559598306
          7.7714103099e-05 0.00015281132073 0.00043232136522 0.00062737852568 -0.00013317355479 -0.00017269937962
          0.00031569768908 0.00069967686431 0.00037840794539 -0.00076475413516 -0.00090940704104 -0.00085566146299
          -0.0002902719425 -8.4077350039e-05 -0.00027838564711 -0.00024237041362 0.00032098099473 0.00013193707855
          4.1420687921e-05 0.00017296227452 0.00011837440979 -7.9649915278e-05 -0.00016556870833 -9.6838957688e-05
          0.00023419865465 -0.00020256360585 -0.00032449149876 -0.00070919998689 -0.00011131708743 -7.0205278462e-06
          -0.00015833282669 -2.9815195376e-05 0.0001763291657 0.00013195548672 3.8136116927e-05 -0.00043197977357
          0.0015975468559 -0.001549444627 -0.00097581272712 0.00022148039716 0.00033432469354 -0.00027694049641
          -0.00057280308101 0.00017028859293 -0.0011510899058 0.0019587934949 -0.00024114488042 -0.00045353316818
          -0.00065286108293 0.0001739054569 -0.00017356741591 0.00011132412328 0.00018554566486 -0.00050187780289
          -0.00019038515165 -2.1589574317e-05 -0.00020465807756 -8.006022108e-05 0.0011519986438 -0.001025469508
          0.0010504623642 0.001163471723 0.00090828409884 -6.5666783485e-05 -0.0010411678813 -0.0010728162015
          0.00024077220587 0.00068478245521 -0.00035341392504 0.00025171064772 -0.00025505025405 -0.0001095123589
          -3.2560561522e-05 -0.00053466885583 -1.0749109606e-05 -0.00027337076608 0.00065776344854 -0.00011518852261
          0.0007231348427 0.00077271438204 -0.00036722532241 -0.00014576157264 -0.0010508209234 -0.00084749003872
          -0.00080874492414 -0.00089131266577 -0.00036796997301 -1.4037289475e-05 0.00022282068676 -6.6205706389e-05
          0.00085994502297 -0.00032295388519 0.00069868657738 -0.00013471448619 0.00038296353887 -0.00024000645499
          -0.00013331232185 -0.00013692220091 3.8152342313e-05 0.0012992310803 -0.00067162618507 -0.00019765656907
          -0.00069462618558 -2.3083006454e-05 -5.7298344473e-05 6.853803643e-05 -0.00060840783408 -0.0014284698991
          0.00040626878035 0.0012108818628 -0.00083455332788 -0.00055351882474 -0.00011501445988 -0.0014096809318
          7.7022850746e-05 0.00094533478841 -0.0015023299493 -0.000213734922 0.00043688414735 0.00049474317348
          0.00035850243876 4.1073017201e-05 0.00043154266314 -0.00049564009532 0.00058144930517 0.00052922969917
          -0.00016890416737 -0.00078479538206 -2.7353669793e-05 -0.00010706619651 -0.00012866184989 0.0011945534497
          -0.0012784615392 -0.00040148891276 -0.00014777146862 -0.00032263397588 0.00017245872004 -9.6000891062e-05
          0.0013118920615 0.0014523228165 0.0010045883246 0.00047370803077 0.00017362186918 0.00067821063567
          0.00015825607989 0.0012007914484 -0.00013595096243 0.00069419963984 -0.00056697143009 -0.00023045936541
          -0.0003131168487 -0.00088381400565 -0.00031264542486 0.00047898336197 -7.6743599493e-05 0.0010648260359
          -0.00020960875554 0.00046606227988 0.00021532157552 0.0010665530572 0.00033154472476 -0.0001293955429
          -0.0014609354548 -0.0011753240833 -0.0010573511245 -0.00016962572408 -0.00037494496792 -0.00020866453997
          -0.00030881370185 0.00041550543392 -9.4180228189e-05 -0.00012042464368 -0.00050260091666 -0.00037251855247
          0.00018928275676 -0.0003203060478 0.00043574045412 -0.00057611073134 -0.00060271052644 -0.0011332184076
          -0.00036172071123 -0.00019975454779 -0.00058866204927 -6.63824394e-05 -0.00022205371351 0.00016390848032
          0.00063169794157 -0.00063310482074 -0.00016150358715 -2.288176438e-05 0.00047859936603 -0.0021288238931
          -0.00027485014289 0.001010721433 0.0012190338457 0.00019377665012 0.00045784321264 2.7839709219e-05
          -0.00053286820184 8.2559716247e-05 0.00018490648654 -0.00066962704295 0.00067898974521 -2.6138097382e-05
          0.00032477919012 0.0011683338089 8.0311328929e-05 0.00015824973525 -2.5724662919e-05 0.00064464274328
          0.00032855587779 0.00021875106904 0.00026523682754 0.00011918823293 -0.00018283816462 -0.00022872973932
          0.00063448195579 -0.0002337621554 0.00037623941898 -0.00064899813151 0.00051537156105 0.00089265761198
          0.00056474114535 -0.00015592307318 -0.00040904039633 0.00067663949449 0.00016915274318 -0.00016723464068
          0.00048128838534 -0.00038042233791 0.00033903814619 0.00018518671277 0.00035135855433 -0.00074974488234
          0.00020416745974 -0.0020020904485 0.0016912452411 -0.00013169749582 0.00030348266591 -0.00023609134951
          -5.0278686103e-05 0.00076271273429 -6.7623077484e-05 0.0011482147966 -0.00097917439416 0.0002615780686
          0.00037214814802 0.00017100416881 -0.00047025061212 -0.00022376021661 0.0005533293006 -0.0019573152531
          0.0013221468544 -0.001082095434 0.00011700185132 -0.00069783075014 0.00019318416889 0.00012287854042
          0.00031502961065 0.0011450947495 -0.0011182258604 7.2741459007e-05 -0.0003371151397 -0.00017188748461
          -0.00072368257679 -6.4369392931e-05 0.00065812579123 -0.00019524261006 7.5318021118e-05 0.00056424882496
          -0.00017839630891 -0.0018187635578 -0.00029556205845 -7.2021808592e-05 0.00094564876053 0.0010527460836
          -0.00034282705747 -0.00067652727012 -0.00014517715317 -0.00051427714061 3.6630677641e-05 -0.00025740734418
          -0.00019000805332 0.00052600965137 -0.00036286417162 0.00078704598127 -0.00032271255623 -0.00078925862908
          -0.00090555666247 -0.00019443161727 -8.7947999418e-05 -0.00048792912276 -0.00011436653585 -0.00086719519459
          0.00060055399081 4.5449229219e-05 0.00035334625863 -0.0007349231746 0.00047976864153 0.00074158649659
          -0.0014330833219 -0.00015944566985 0.00035113835474 -0.0012564434437 -0.00042280842899 0.00030992436223
          0.001160200336 -0.00030390088796 0.0017290011747 -0.00033004372381 0.00095115770819 0.00042801359086
          0.00064111727988 -0.0012301172828 0.00075192330405 -0.00027825497091 -0.00038350533578 -0.0023522845004
          0.0002713103313 -0.0010551162995 0.00011933228961 0.00084332027473 0.0010387869552 0.00095229316503
          0.00011928914319 0.00040713354247 0.00018872719374 0.00032449117862 -0.00066447909921 -0.00028234982165
          0.0011432113824 1.3834545825e-05 0.00027824097197 -0.0023005108815 0.00076528545469 0.00016962840164
          0.0002035262587 0.00050534115871 -0.00019490653358 0.00056143064285 -7.9961850133e-05 0.00017664738698
          -0.00033043665462 7.8626340837e-05 -0.0008059743559 0.00011434030603 -0.0001915020548 -0.00074724457227
          6.7606117227e-05 0.0015964946942 6.7724038672e-05 0.00062975642504 -0.00073065067409 -0.00079580931924
          -0.00054069957696 -0.0012003943557 -0.00059042073553 0.00012208906992 0.00024436271633 0.00089128117543
          0.00062875106232 -0.00061158207245 -0.00043868317152 -0.00013333259267 0.00025454870774 0.0016690783668
          -0.00045322754886 -9.9747063359e-05 -4.181212887e-08 -0.00016759417485 0.0001261036814 0.00021383041167
          -0.00035572293564 0.00018663657829 0.00016528496053 0.00036173735862 0.00052128534298 -2.2361202355e-05
          0.00029398541665 -0.00050384009955 0.00058511446696 -0.0019111020956 -0.0002284769289 0.00044171043555
          0.00047792447731 -9.5873176178e-05 2.7718691854e-05 0.0018084048061 0.00062898447504 -1.7870870579e-05
          -0.00029891080339 -0.00010811966786 -8.7932916358e-05 0.00046587630641 -0.00046863785246 -1.2595260159e-05
          0.00011475590145 0.00099751260132 8.8425906142e-05 0.00015600357438 -0.00015607301611 -0.00028149402351
          -0.00089585903334 -0.00030008223257 -0.00090795307187 -0.00037531807902 -5.0391019613e-05 -4.8480866099e-05
          0.00022853714472 0.0017734712455 0.00054067268502 0.00047489925055 0.00066086131847 0.0011618586723
          0.00071107957046 -0.00057604105677 0.00045682388009 0.00058934104163 0.0004138998338 -0.00023539928952
          0.00082174752606 -0.00060575420503 -0.00019271086785 7.7215845522e-05 -0.00074332335498 0.0002110110654
          0.0010565815028 -0.00075851596193 -0.0012554613641 -0.00054482347332 0.00020701035101 -0.00060529180337
          -0.00010904599185 0.0013308103662 -8.486637671e-05 0.0018357350491 -2.4794480851e-05 -0.0004846888769
          0.00050868163817 0.0011405011173 -0.00095597759355 -0.00076491845539 -0.00080830807565 -0.00076595251448
          -0.0012644627132 -0.0011214236729 -0.001088378951 0.00013560662046 -0.00028030827525 -8.1908319771e-06
          -0.00045253051212 0.00017493868654 -0.0012035903055 -0.00085610762471 4.9961992772e-05 -0.0010559923248
          -0.00092394463718 -0.0014026531717 -0.0011552652577 -0.0003239629732 0.00061014929088 -0.00047707211343
          0.00048791381414 0.00074291112833 -0.00018044025637 0.00043405979523 0 0
          0 0 0 0 0 0
          0 0 0 0 0
        </DataArray>
        <DataArray type="Float32" Name="uy" format="ascii" RangeMin="-0.0059063700028" RangeMax="0.0066232900135">
          0.00087922083912 0.00017097820819 -0.00045478570974 0.0042102811858 -0.00039703553193 0.00061321712565
          -0.0010382831097 0.00060377578484 -0.00020284508355 0.00045659419266 0.0027061125729 0.00036526986514
          0.00097240222385 -0.00073289149441 0.00088766042609 -0.0017595111858 -0.00024165670038 -0.001887686667
          -0.00046025964548 0.00020253006369 0.0011902515544 -0.00061041192384 -0.00072606728645 9.1106485343e-05
          0.0016266329912 -3.859429853e-06 -0.0032728482038 0.0008169253706 0.00011995784735 -0.00088862224948
          0.00013852879056 -0.00022810662631 -0.0015519083245 0.00063322909409 -0.0006557002198 -0.00099637452513
          -0.0002580381697 0.00091395981144 -0.0001743217872 0.0015864616726 0.00064525118796 -0.00041532123578
          0.002215224551 -3.3427935705e-05 0.00026381138014 -0.00088168570073 -0.0018827599706 0.0006272366154
          0.0010821048636 -0.00094838056248 -0.001026132144 0.00043840135913 0.0001267963089 7.598601951e-05
          -0.00021072875825 0.0005170791992 0.00044961241656 4.354763405e-06 -0.00074097362813 0.00092188507551
          -0.00059948005946 0.00028481220943 0.0023597592954 -0.00056471390417 -0.0010438847821 -0.00025933558936
          0.001201963285 -0.00050663680304 -0.0015223019291 0.00039817535435 -0.00031477739685 -0.00038790679537
          -0.00075856415788 -0.0014874386834 0.00089150987333 7.3908282502e-05 -0.00054863869445 -9.1330621217e-05
          -0.00015156966401 0.00095344969304 -0.00078528781887 -0.00034339094418 0.0010406228248 -0.00037013716064
          -0.00046034617117 -0.00052977999439 -0.0010305538308 -0.00043261074461 -0.00023988005705 9.5630137366e-05
          -0.00022422125039 0.0003631512518 -0.00041283131577 -0.00045534223318 0.00048532173969 0.00045673421118
          -7.0219481131e-05 0.00017658904835 0.0012746806024 0.00022131980222 0.00076329952572 -0.00011827389972
          -0.0012210968416 6.0907564148e-07 0.00045014967327 0.00082863727584 -0.00045114924433 3.7252182665e-05
          0.00025011779508 -0.00012625586533 0.0010853741551 -0.00051319715567 -0.0008856903878 0.00069023843389
          0.0013711333741 0.00084192492068 -1.5766836441e-05 0.0019521830836 -0.00085236487212 -0.00039173511323
          -0.00026920298114 1.7485404896e-05 -0.00031224804115 0.00029369659023 6.880449655e-05 0.00041748621152
          0.0007862385246 0.00017848148127 -0.00087738409638 5.2613588196e-05 0.00072815583553 0.00034049508395
          -0.0006918910658 0.00078640878201 -0.00092088530073 -0.0004481842916 -2.3656117264e-05 7.2932467447e-05
          -7.102311065e-05 -0.00023689614318 0.00024565387866 0.00091988721397 0.00010819177987 0.00047184163122
          -0.00030813177 -0.00025087280665 0.0005137034459 -5.1855229685e-05 -0.0005968073383 0.00016275607049
          -0.00093875202583 -0.00011843958055 -0.00011807798728 -1.4852655113e-05 -0.00015625968808 5.8886049374e-05
          -0.00043101698975 0.00088635453722 0.0007664510631 -0.00028003944317 0.00053856929298 0.00028092262801
          0.00087552639889 9.7761694633e-05 -0.0010776637355 4.2705472879e-05 0.0001136959836 7.48159664e-06
          -0.00011372013978 -0.00051167554921 0.00067617330933 -0.00074203248369 0.000286984985 0.00068525673123
          -0.0012640552595 -0.00029170920607 -0.00035467740963 -6.3117266109e-05 -0.00089326733723 9.6418501926e-05
          -0.0012959432788 -3.5902252421e-05 0.00063602754381 7.2658453973e-06 -0.00086714484496 -0.00077957857866
          0.0004266325268 -0.00051741721109 5.6874068832e-05 0.00067433016375 0.00069529912435 -0.00078354548896
          0.0005117324763 0.00033178113517 0.001539465622 2.6894884286e-05 -0.00024683008087 -0.0008669499075
          0.00016703415895 0.00029038582579 0.0010048843687 -0.00031374569517 0.0011101388372 -0.00030813075136
          0.00037281654659 0.00022881373297 0.0020216540433 -0.0011474502971 0.0002198919974 0.00026844395325
          0.0016337877605 -2.2230487957e-05 -0.00077326508472 -0.00040653752512 -5.0511862355e-05 0.00067833362846
          0.0011845077388 -3.0866845918e-05 -0.00020427544951 -0.00052912475076 0.00059265299933 -0.00049911276437
          -0.00027069300995 0.00059869303368 -0.0014938338427 -0.00070261710789 0.00014354863379 -0.0008173690876
          -0.00085243216017 -0.00016740968567 -0.00093466386897 -0.00035465176916 0.00046992581338 8.5657607997e-05
          -0.0017148709157 0.00028754503001 0.00062452646671 -8.3043320046e-05 -0.00016147000133 0.0011411206797
          -0.00049335055519 -0.00045098204282 -0.0011815632461 -0.00054498412646 0.00066353147849 -0.00034201150993
          0.00035903576645 -0.00031330456841 0.00055814516963 0.00040744847502 -0.00019833332044 0.00061971927062
          0.00093863270013 0.00045801521628 -0.00050360983005 0.00070954312105 -0.00048606324708 -0.00024169437529
          -0.0015838711988 -0.00014258886222 0.00034233205952 -0.00086913531413 0.00077441183385 -0.00040629258729
          0.00063128053444 -0.00013920935453 0.00019615597557 0.00034190047882 -0.00054285716033 0.00031880781171
          0.00032685452607 0.00038363033673 -0.00023186173348 -0.00052742182743 -0.000393327442 -0.00016897688329
          0.00025457199081 -0.00044984862325 -0.00047369828098 -0.00039786129491 0.00072404439561 0.00019055933808
          0.00065137603087 -0.00031529384432 -0.00082747742999 -0.00038994901115 0.00051907572197 -0.00055811228231
          0.001408481854 -0.0011465202551 -0.0019154410111 -0.00094757706393 -0.0003229509166 -0.0010957262712
          0.00092417403357 -0.0003263487306 0.00022745972092 0.00050041161012 -0.00032760357135 -0.00051121844444
          -0.00025947284303 -0.0004377506848 0.00019868797972 0.0001664871379 0.0015830112388 -0.00024735106854
          -0.0013058469631 -0.00046260186355 0.0015070787631 -0.00029380925116 0.00077638303628 2.0460434826e-05
          0.00039670913247 0.00063740136102 -0.00040066955262 0.00035936551285 -0.00013395684073 -0.00029658776475
          0.0011012871983 -0.0011087466264 0.00045342298108 4.4209089538e-05 -0.0013203452108 0.00027914409293
          0.0014133314835 0.00058011268266 0.0007557751378 -1.6275835151e-05 0.00046245913836 6.9661553425e-05
          0.00035559476237 9.5853407402e-05 0.00026998919202 -0.00013955810573 -8.6925509095e-05 -0.00010404823115
          -0.0002196602436 8.9254535851e-05 -0.00013809232041 9.786416922e-05 0.00018766956055 0.00026335782604
          -5.0990674936e-05 -3.3542790334e-05 0.00011452790932 0.00011139445269 6.8696790549e-05 0.00018330504827
          -0.00051709695254 -0.00019275363593 0.00052822631551 -0.0011065471917 0.00028946381644 0.00032311017276
          0.0022845757194 0.00062544591492 -0.0024531877134 0.0014132050565 0.00023143582803 0.00013070557907
          -0.0010050763376 -0.00069525459548 -4.0285885916e-05 0.00039260927588 -0.00036139407894 0.00017656384443
          -0.00089797948021 -6.7284141551e-05 -0.00013558988576 0.00014832879242 0.0013327479828 0.00097938545514
          0.00035540739191 0.00038148829481 0.00046413642121 0.00011206087947 0.00069239991717 0.00013136626512
          0.00018297828501 0.00083430245286 -0.0011963737197 5.0332349929e-05 0.00058538233861 -0.00042947157635
          -0.00020851817681 -0.00088828074513 -0.00028653792106 -0.00059438013704 0.00060004880652 0.0010769973742
          -0.00085458951071 -0.00084037362831 5.6373944972e-05 0.00078615144594 -0.00018279557116 -0.00011277371232
          0.00028110283893 0.00044548051665 -0.00040179232019 -0.00010924862727 0.00029175088275 5.9695776145e-05
          0.00019529812562 0.00045614221017 -0.00042690400733 -5.0043854571e-05 0.00057016231585 -0.00050042575458
          0.00032428186387 0.00068158179056 -3.1779465644e-05 -0.00080886646174 0.0017557009123 0.00037937247544
          6.0275575379e-05 -0.00072320230538 -0.00029238782008 -0.00030151440296 0.00019542130758 0.0012488799402
          -0.00024581380421 0.00026461930247 -0.00029151901253 0.00041181122651 0.00082706898684 0.00084932317259
          0.00097754411399 -0.0016287306789 0.0010665905429 0.00050842179917 3.7149606214e-05 -0.00045997579582
          0.0001456378086 -0.00054594891844 -0.0003404825693 0.00021777031361 -0.00021486292826 -0.0012212052243
          -2.1452191504e-05 9.0771325631e-05 0.00074864947237 0.0006331630284 7.8681296145e-05 -0.0001122871472
          -0.00086550757987 0.00073802052066 -0.00052908202633 -0.0006625035312 -0.00053895940073 -0.00021548023506
          0.00023966516892 -0.00072356662713 -0.00059316644911 0.00035032781307 -0.00066522113048 0.0012417557882
          0.00060450512683 0.0011600865982 -0.00010365782509 -0.00035815424053 -0.00017265434144 0.00047010366688
          -0.0003177128383 -0.00021250687132 -0.00077712140046 0.00018246751279 -0.00060310662957 -0.00052841578145
          -0.00022035751317 -0.00011831145093 -0.00079112278763 0.0013774666004 -0.00018911520601 -4.0396957047e-05
          0.00012850970961 -0.00073790713213 -0.00053637853125 0.00074538489571 -0.00025355469552 -0.00030432787025
          -0.00074121990474 -3.5459575884e-05 -0.00049994792789 -0.00035750368261 -0.00023717658769 -0.00054887722945
          -0.00051410211017 -0.0001012652865 -0.00031602632953 -0.0009164197254 0.00012188032269 0.00043448139331
          -0.00036844238639 0.00067498575663 -0.00013462892093 0.00017258933804 -0.00022012909176 0.00034553161822
          0.00048545497702 -0.0002212098625 0.00020927554579 0.00023158140539 0.00034615615732 -0.00090243952582
          2.1645615561e-05 -0.0016960875364 0.00028878537705 0.0014437657082 5.9379344748e-05 0.00017104679137
          -0.000597976672 -0.00030445193988 -0.00026141258422 0.00076580268797 0.00021819466201 -0.00053148478037
          -7.0305723057e-05 0.00076786649879 -0.0010501594516 0.00013284441957 -0.0005572757218 -0.00058616336901
          -8.6388034106e-05 -0.00043611798901 -0.00038892848534 -0.00017663773906 -0.00050922116498 0.00035600725096
          -0.0006662948872 6.7146560468e-05 0.00021868324257 0.00013540187501 -0.00011521686974 -0.00033781194361
          -0.00086399767315 0.0014948936878 -0.00086576188914 -0.00090505002299 0.00024573539849 3.8720972952e-06
          -0.00064550875686 0.00066921970574 -0.00032565082074 0.00062120537041 -0.00068243028363 0.0005836308701
          0.00034388568019 0.0017004486872 -3.7215839257e-05 -0.00083909457317 0.0004714288807 0.00090838677716
          -0.00053987716092 -0.00033367826836 0.000361617218 -0.00030522802263 0.00014387107512 0.0005118396366
          -0.00023300660541 0.00022105187236 -4.0259052184e-05 -0.00025478261523 0.0006401957944 0.0011648220243
          -0.0002108206827 0.00029040829395 0.00043463712791 -0.00032390022534 -0.00014129791816 0.00079969095532
          0.00035481597297 -0.00045649788808 0.0012191528222 0.00020483446133 -0.00037854458787 -0.00022177517531
          -6.822809155e-06 -0.00034075701842 -0.00024753590696 -6.4356303483e-05 -0.00011226713104 0.00046956900042
          -0.00067582627526 0.000310746982 0.00019605118723 0.0011022989638 0.0011348982807 0.00025618128711
          0.00050181918778 -0.00047568761511 -0.00028632429894 0.00017754027795 -0.00032889819704 9.8577263998e-05
          -0.00052356824744 -0.00083466019714 0.0004719599383 0.00042369152652 -0.00093628815375 0.0011672668625
          -0.00018850255583 0.00071709527401 0.00031879663584 -0.00027023776784 -0.0012526161736 -0.00031448688242
          -0.00028303425643 6.6954802605e-05 -0.00034300654079 0.00052795920055 0.00026159544359 -0.0014447179856
          0.00060912611661 0.0016066790558 -0.0005207938375 0.00070190930273 0.00033457676182 -0.00058401259594
          0.00051519961562 0.0013722301228 -0.00095321744448 0.00063634390244 -0.00069969159085 -0.00013621257676
          -0.00059519056231 0.0014040713431 9.6417505119e-05 -0.0012126868824 0.00068705802551 -0.00051457056543
          0.00052240205696 -0.00038075968041 0.00023393217998 0.00047208275646 0.00067985930946 0.00020968583704
          0.00055600033375 -0.00052266864805 -0.00013150046289 -0.00035183879663 -0.00096027203836 0.00059701834107
          0.00072509533493 -0.00043674977496 0.00056944525568 -0.00068870699033 0.0013696858659 -0.0012211528374
          0.0002986935142 0.0010267405305 -7.2519374953e-05 0.00030838718521 0.00092558405595 -0.00041805431829
          0.00044818487368 -0.00037720502587 -0.00039408524754 0.0011474096682 0.00040622017696 -0.00066773203434
          0.00010188416491 0.00036269440898 -0.00057886674767 -0.00084246014012 0.00018952444952 0.0017373472219
          -0.00042040020344 -0.0018960421439 0.00043985550292 -0.00088670128025 0.00035055336775 -0.00072866881965
          -0.00034470352693 0.00057100807317 -0.00023408974812 -0.000147025552 -0.00021681112412 0.0002937631798
          -0.0010128526483 -0.00036031613126 0.00022947124671 0.00014666866628 -9.9983815744e-05 -0.001273250673
          7.7004253399e-05 0.00023768941173 -0.00012179065379 -0.00030811643228 -0.00029467634158 -0.00026233692188
          0.00080388464266 0.0007713951054 0.00041015149327 -0.00033243908547 0.00020281327306 -0.001055176137
          -5.6998273067e-05 -0.00032830642886 -0.00045134918764 0.00056087481789 -0.0004773340479 6.6813314334e-05
          -0.00028741906863 -0.00016375856649 -0.00052377179964 0.00015603515203 9.1550682555e-05 -0.0011574921664
          -0.00033648137469 -0.0011448162841 8.0668396549e-05 -0.00064502999885 -0.00050616095541 -0.0011688758386
          -0.0011506157462 0.00092002860038 -0.00042060340638 -0.00048094789963 -0.00033698516199 -0.00024212064454
          0.00085197621956 -0.00074560492067 0.00096561876126 0.00012617805623 -0.00015814493236 -0.001080985181
          -0.00033784401603 0.0008851926541 0.0001000429329 -0.00056275911629 -0.0037033171393 -0.00080487964442
          0.0066232900135 -0.00053136097267 -0.0059063700028 0.0030902794097 0.0021636984311 -0.001049114042
          4.8867972509e-05 -0.00053317612037 0.00017071966431 -0.00040047851508 -0.00088904052973 -0.0016980798682
          -0.00045441399561 0.0026885392144 0.00085700192722 -0.0022554427851 -0.00028533063596 -0.00056495406898
          0.0026802862994 -0.00014355382882 0.00017764458607 6.3007428253e-05 0.0009288986912 6.3366882387e-05
          0.00090221734717 -0.00023465781123 -0.0010614553466 0.0004390933027 -0.00021349340386 -0.0025052696001
          -0.0028735115193 0.0023124134168 4.9978771131e-06 -0.0012597304303 0.0011457058135 2.2127253033e-05
          0.0010216889204 -0.00062688742764 -0.00094944593729 -0.00086753099458 -0.00063808250707 -0.0014823479578
          -0.0011688987724 -0.0031225052662 0.0015729428269 -0.0008614200633 0 0
          0 0 0 0 0 0
          0 0 0 0 0