<VTKFile type="UnstructuredGrid" version="1.0" byte_order="LittleEndian" header_type="UInt64">
  <UnstructuredGrid>
    <Piece NumberOfPoints="791" NumberOfCells="973">
      <PointData>
        <DataArray type="Float32" Name="ux" format="ascii" RangeMin="-1.0934810638" RangeMax="0.7691732645">
          0.41513410211 0.4397264421 0.44901761413 0.41007757187 0.41513305902 0.44901937246
          0.43972751498 0.41512849927 0.43419978023 0.41943708062 0.4100664854 0.43420234323
          0.41513043642 0.41944471002 0.43410030007 0.41939139366 0.43409737945 0.41938126087
          0.4639698565 0.43264514208 0.46396765113 0.46403813362 0.46404021978 0.46395987272
          0.43258157372 0.46396115422 0.40676826239 0.66992539167 0.67045819759 0.66994309425
          0.60285156965 0.6029574275 0.60288488865 0.67064362764 0.60302489996 0.67068058252
          0.60323774815 0.67047578096 0.67080712318 0.67082715034 0.60268729925 0.60285621881
          0.60306769609 0.67001539469 0.6021451354 0.67063218355 0.60291689634 0.67065906525
          0.60284823179 0.67128574848 0.6034373045 0.66999125481 0.60213953257 0.67073732615
          0.60279148817 0.67116415501 0.60331869125 0.67075133324 0.60331022739 0.72147578001
          0.72200167179 0.72149652243 0.72220540047 0.72230416536 0.72196495533 0.72231346369
          0.72238510847 0.72140657902 0.72216725349 0.7221814394 0.72290629148 0.72138887644
          0.72224503756 0.72278243303 0.72237300873 0.7545260787 0.7551175952 0.75454413891
          0.75534236431 0.75543737411 0.75508409739 0.75546896458 0.75553739071 0.75448381901
          0.75530177355 0.75532221794 0.75610333681 0.75446534157 0.75540149212 0.75597608089
          0.75550580025 0.76750564575 0.76812785864 0.76752382517 0.76836889982 0.76847219467
          0.76809936762 0.76850318909 0.76857483387 0.76746451855 0.76832705736 0.76835137606
          0.7691719532 0.7674472332 0.76843601465 0.76904302835 0.76854014397 0.75926077366
          0.75990128517 0.75927847624 0.76014953852 0.7602545619 0.7598734498 0.76028811932
          0.76036030054 0.75922328234 0.76010650396 0.76013255119 0.76097279787 0.7592061162
          0.7602211237 0.76084274054 0.76032245159 0.72922480106 0.72986626625 0.72924262285
          0.73011505604 0.73021960258 0.72984075546 0.730255723 0.73032671213 0.72919130325
          0.73007273674 0.73009943962 0.73093944788 0.72917407751 0.73018854856 0.73080909252
          0.73028773069 0.67739522457 0.67802220583 0.67741346359 0.6782643199 0.67836534977
          0.67799860239 0.67840445042 0.67847239971 0.6773660779 0.67822402716 0.67824989557
          0.67907077074 0.67734837532 0.67833667994 0.67894089222 0.67843401432 0.60431152582
          0.60490942001 0.6043304801 0.60513842106 0.60523325205 0.60488778353 0.60527563095
          0.60533893108 0.60428702831 0.60510140657 0.60512518883 0.60590934753 0.60426861048
          0.6052069664 0.60578066111 0.60530275106 0.51101702452 0.51157283783 0.51103693247
          0.5117828846 0.51186907291 0.51155310869 0.51191496849 0.51197224855 0.51099741459
          0.51175028086 0.51177090406 0.51250261068 0.51097798347 0.51184523106 0.51237571239
          0.51193964481 0.39900413156 0.39950683713 0.3990252316 0.39969313145 0.39976868033
          0.39948910475 0.3998183012 0.39986824989 0.39898964763 0.39966583252 0.3996823132
          0.4003482759 0.39896899462 0.39974719286 0.4002238214 0.39984053373 0.27014514804
          0.27058622241 0.27016761899 0.27074488997 0.27080821991 0.27057042718 0.27086177468
          0.27090343833 0.27013599873 0.27072367072 0.27073526382 0.2713252008 0.27011391521
          0.27078911662 0.27120354772 0.27088150382 0.12660889328 0.12698248029 0.12663283944
          0.1271109879 0.1271610111 0.12696868181 0.12721858919 0.12725132704 0.12660515308
          0.12709631026 0.12710255384 0.12760941684 0.12658154964 0.127144292 0.12749087811
          0.12723585963 -0.029235394672 -0.028931967914 -0.029209924862 -0.028834836558 -0.028798585758
          -0.028943795711 -0.028736943379 -0.028713436797 -0.029233645648 -0.028842704371 -0.028842063621
          -0.028421524912 -0.029258845374 -0.028812939301 -0.028536792845 -0.028722152114 -0.19492469728
          -0.19469076395 -0.19489772618 -0.1946247071 -0.19460208714 -0.19470062852 -0.19453641772
          -0.1945220679 -0.19491748512 -0.19462583959 -0.19463072717 -0.19429570436 -0.1949442476
          -0.19461406767 -0.19440771639 -0.19452410936 -0.36801832914 -0.367849648 -0.36798992753
          -0.36781272292 -0.36780297756 -0.36785754561 -0.36773335934 -0.3677276969 -0.36800572276
          -0.36780750751 -0.3678175509 -0.36756291986 -0.36803397536 -0.36781257391 -0.36767184734
          -0.36772352457 -0.54622113705 -0.54610979557 -0.54619151354 -0.54609847069 -0.54610002041
          -0.54611569643 -0.5460267067 -0.54602879286 -0.54620331526 -0.54608756304 -0.54610204697
          -0.54591816664 -0.54623287916 -0.54610723257 -0.54602438211 -0.54601931572 -0.72751277685
          -0.72744685411 -0.72748214006 -0.72745573521 -0.72746646404 -0.72745078802 -0.72738969326
          -0.72739821672 -0.72749006748 -0.72744017839 -0.727458179 -0.72733074427 -0.72752064466
          -0.72747135162 -0.72743475437 -0.72738474607 -0.91027915478 -0.91024303436 -0.91024786234
          -0.9102653265 -0.91028225422 -0.91024488211 -0.91020220518 -0.91021561623 -0.91025155783
          -0.91024649143 -0.91026645899 -0.91017663479 -0.91028285027 -0.9102845192 -0.91027921438
          -0.9101998806 -1.0934504271 -1.0934245586 -1.093419075 -1.0934512615 -1.0934706926
          -1.0934252739 -1.0933887959 -1.0934041739 -1.0934203863 -1.0934312344 -1.0934517384
          -1.093375206 -1.0934517384 -1.0934714079 -1.0934772491 -1.0933879614 0.48981410265
          0.50383943319 0.48985531926 0.50920981169 0.50059956312 0.53182321787 0.53522974253
          0.51793670654 0.54559540749 0.51785683632 0.52651125193 0.51812142134 0.54558986425
          0.53516089916 0.51801139116 0.50067812204 0.48776167631 0.4935631156 0.5116276145
          0.46389633417 0.47868287563 0.51156699657 0.49349784851 0.60285305977 0.60295820236
          0.60288542509 0.66992723942 0.6704595685 0.66994422674 0.60302627087 0.6706456542
          0.60323989391 0.67068296671 0.60268807411 0.60285633802 0.60306817293 0.67047715187
          0.67080771923 0.67082804441 0.60214573145 0.67001652718 0.60291785002 0.67063373327
          0.6028496027 0.6706610322 0.60343694687 0.67128610611 0.60214078426 0.66999310255
          0.60279333591 0.67073976994 0.60332089663 0.67116683722 0.60331010818 0.67075186968
          0.72147810459 0.72200340033 0.72149813175 0.72220784426 0.72230708599 0.72196674347
          0.72231453657 0.72238647938 0.72140818834 0.72216916084 0.72218382359 0.72290706635
          0.72139120102 0.72224789858 0.72278559208 0.72237402201 0.75452870131 0.75511968136
          0.75454604626 0.75534510612 0.75544059277 0.75508618355 0.75547033548 0.75553905964
          0.75448578596 0.75530403852 0.75532490015 0.7561044693 0.75446796417 0.75540465117
          0.75597953796 0.75550711155 0.76750850677 0.76813012362 0.76752585173 0.76837188005
          0.76847565174 0.7681016922 0.76850473881 0.76857668161 0.76746666431 0.76832956076
          0.76835429668 0.7691732645 0.76745003462 0.76843941212 0.76904666424 0.76854163408
          0.75926375389 0.75990366936 0.75928062201 0.76015257835 0.76025813818 0.75987583399
          0.76028972864 0.76036226749 0.75922554731 0.76010906696 0.76013559103 0.76097422838
          0.75920897722 0.76022464037 0.76084649563 0.76032406092 0.72922772169 0.72986859083
          0.72924476862 0.73011803627 0.73022311926 0.72984313965 0.73025733232 0.73032861948
          0.72919350863 0.73007529974 0.73010241985 0.73094081879 0.72917693853 0.73019194603
          0.73081284761 0.73028928041 0.67739796638 0.6780244112 0.67741543055 0.67826718092
          0.67836868763 0.67800080776 0.67840594053 0.67847418785 0.67736810446 0.67822641134
          0.6782527566 0.67907196283 0.67735111713 0.6783400178 0.6789444685 0.67843538523
          0.60431402922 0.60491138697 0.60433220863 0.60514104366 0.60523635149 0.60488975048
          0.60527682304 0.6053404808 0.60428881645 0.60510355234 0.60512781143 0.60591030121
          0.60427111387 0.60521006584 0.60578399897 0.60530388355 0.51101917028 0.51157438755
          0.51103830338 0.51178514957 0.51187187433 0.51155471802 0.51191586256 0.51197344065
          0.5109988451 0.511752069 0.51177310944 0.51250314713 0.51098012924 0.51184791327
          0.51237869263 0.51194041967 0.39900583029 0.39950796962 0.39902615547 0.39969494939
          0.39977100492 0.39949023724 0.39981871843 0.39986899495 0.3989906013 0.39966714382
          0.39968410134 0.40034842491 0.39897066355 0.39974945784 0.4002263546 0.39984086156
          0.27014634013 0.27058681846 0.27016803622 0.27074620128 0.27081000805 0.27057108283
          0.27086165547 0.27090364695 0.27013644576 0.27072447538 0.27073654532 0.27132481337
          0.2701150775 0.27079084516 0.27120554447 0.27088132501 0.12660948932 0.12698251009
          0.12663266063 0.12711168826 0.12716221809 0.12696871161 0.12721785903 0.12725093961
          0.12660500407 0.12709653378 0.1271032393 0.12760843337 0.12658211589 0.12714543939
          0.12749229372 0.12723508477 -0.029235456139 -0.028932597488 -0.029210751876 -0.028834788129
          -0.02879803814 -0.028944419697 -0.028738332912 -0.028714478016 -0.029234444723 -0.028843145818
          -0.02884202823 -0.028423160315 -0.029258931056 -0.028812432662 -0.028536036611 -0.028723582625
          -0.19492545724 -0.19469210505 -0.1948992461 -0.19462534785 -0.19460225105 -0.19470195472
          -0.19453850389 -0.19452379644 -0.19491897523 -0.19462697208 -0.19463138282 -0.19429802895
          -0.19494503736 -0.19461426139 -0.19440765679 -0.19452622533 -0.36801981926 -0.36785170436
          -0.36799219251 -0.36781412363 -0.36780387163 -0.36785960197 -0.36773619056 -0.36773017049
          -0.36800795794 -0.36780935526 -0.36781895161 -0.36756598949 -0.36803549528 -0.36781349778
          -0.3676725328 -0.36772638559 -0.54622340202 -0.54611259699 -0.54619449377 -0.54610055685
          -0.54610168934 -0.54611849785 -0.54603028297 -0.54603201151 -0.54620635509 -0.54609018564
          -0.54610419273 -0.54592204094 -0.54623514414 -0.5461089015 -0.54602581263 -0.5460229516
          -0.72751575708 -0.72745043039 -0.72748595476 -0.72745865583 -0.72746890783 -0.7274543643
          -0.7273940444 -0.72740221024 -0.72749382257 -0.72744357586 -0.72746109962 -0.72733533382
          -0.7275236845 -0.72747379541 -0.72743695974 -0.72738915682 -0.91028296947 -0.9102473855
          -0.9102524519 -0.91026902199 -0.91028547287 -0.91024923325 -0.91020733118 -0.9102203846
          -0.91025614738 -0.91025072336 -0.91027015448 -0.91018199921 -0.91028666496 -0.91028773785
          -0.91028219461 -0.9102050662 -1.0934550762 -1.0934298038 -1.0934244394 -1.0934557915
          -1.0934746265 -1.0934303999 -1.0933947563 -1.0934096575 -1.0934257507 -1.0934361219
          -1.0934561491 -1.0933812857 -1.0934563875 -1.093475461 -1.0934810638 -1.0933939219
          0.48981398344 0.50383961201 0.48985534906 0.50921052694 0.50059962273 0.53182339668
          0.5352293849 0.5179361105 0.5455955863 0.51785713434 0.52651196718 0.51812130213
          0.54559063911 0.53516197205 0.51801222563 0.50067800283 0.48776188493 0.49356305599
          0.5116276741 0.46389609575 0.47868272662 0.51156717539 0.49349829555 0.30118608475
          0.30119967461 0.3011879921 0.30129781365 0.30116391182 0.30129736662 0.30117157102
          0.30128389597 0.30114579201 0.30116596818 0.30116850138 0.30117234588 0.30128407478
          0.2017441839 0.20158484578 0.20174378157 0.20233754814 0.20174910128 0.20233760774
          0.20178341866 0.20233127475 0.20174147189 0.20172402263 0.20172347128 0.2015606612
          0.20233128965 0.11725760996 0.11704338342 0.11725774407 0.11814219505 0.11724997312
          0.11814216524 0.11730405688 0.11813690513 0.11724336445 0.11724470556 0.11724487692
          0.11702725291 0.11813692003 0.053297944367 0.053027693182 0.053297974169 0.054389439523
          0.053316462785 0.054389413446 0.053396258503 0.0543862544 0.053312536329 0.053289491683
          0.053289514035 0.053017310798 0.054386287928 0.013545786031 0.013145265169 0.013545867987
          0.01518994756 0.013483468443 0.015189906582 0.013560543768 0.015188372694 0.013481548987
          0.013541828841 0.013541911729 0.013140379451 0.015188412741 0 0
          0 0 0 0 0 0
          0 0 0 0 0
        </DataArray>
        <DataArray type="Float32" Name="uy" format="ascii" RangeMin="-0.0012427231995" RangeMax="0.0012418435654">
          -4.1904415411e-05 4.3519739847e-05 -5.9977901401e-05 -1.0356058738e-05 1.6591378881e-05 3.4296732338e-05
          -6.8731467763e-05 7.1163616667e-05 0.00025240823743 6.4384075813e-05 -1.0569325241e-05 -0.00027810910251
          -9.6369483799e-05 -8.8380373199e-05 -0.00022807545611 -6.705398846e-05 0.00020255112031 4.3178839405e-05
          7.3250965215e-05 -1.2689257346e-05 -9.9653851066e-05 0.00010173105693 -0.00012820614211 4.5835800847e-05
          -1.2826878447e-05 -7.2171576903e-05 -1.0332310012e-05 0.00013444623619 -0.00032801547786 -0.0006431028014
          3.2661253499e-05 -0.00027331942692 -0.00049957982264 -5.525664892e-05 -0.00011461996473 0.00039487643517
          0.00020793821022 -6.1121361796e-05 0.00050876912428 -0.00018182717031 -6.1276958149e-05 0.00040555596934
          -0.000124902057 0.00026902579702 0.00021113287949 -0.00020150533237 -0.00018642719078 -0.00038231670624
          -0.00035301828757 -0.00015810673358 -0.00011222746252 -0.00056969060097 -0.00047283628373 -0.00087143597193
          -0.00073392520426 -0.00024270667927 -0.00027000735281 -0.00083850731608 -0.00062506180257 0.00018071960949
          -0.00035776817822 -0.00071410997771 -3.8483565731e-05 0.0004802410549 -6.0380734794e-05 0.00056973635219
          -0.00019723882724 0.0003047795326 -0.00021369203751 -0.0004144210252 -0.00018116354477 -0.00062585005071
          -0.00095780775882 -0.00024640836637 -0.0009465769399 0.00021312644822 -0.00037563533988 -0.00076298502972
          -2.8613598261e-05 0.00053997000214 -5.5820364651e-05 0.00063177698757 -0.00020426108676 0.00034175315523
          -0.00022096003522 -0.0004404366191 -0.00018717939383 -0.00067661330104 -0.0010362622561 -0.00025404983899
          -0.0010188422166 0.00024015872623 -0.00038623553701 -0.00079499580897 -1.6699945263e-05 0.00058686890407
          -5.0359565648e-05 0.00067303609103 -0.0002074483491 0.00036773178726 -0.00022298931435 -0.0004541874514
          -0.0001918868802 -0.00070542300818 -0.001082511968 -0.0002535879612 -0.0010689962655 0.00025807830389
          -0.00038680966827 -0.00080645899288 -6.1870291574e-06 0.00061506946804 -4.315262413e-05 0.0006976723671
          -0.00020490707539 0.00038515744382 -0.00021940284932 -0.00045592000242 -0.00019024692301 -0.00071507174289
          -0.001100378111 -0.00024800581741 -0.0010895151645 0.00026815431193 -0.00037785116001 -0.00079796707723
          4.1225034693e-06 0.00062631850597 -3.3933789382e-05 0.00070574739948 -0.00019649880414 0.00039422544069
          -0.00020998393302 -0.00044573008199 -0.00018288724823 -0.0007050188724 -0.0010894538136 -0.00023651661468
          -0.0010821240721 0.00027079845313 -0.00035930075683 -0.0007699416019 1.4304508113e-05 0.0006213421002
          -2.2540478312e-05 0.00069817755139 -0.00018224821542 0.00039551020018 -0.00019469945983 -0.00042368102004
          -0.00016966329713 -0.00067582516931 -0.0010505907703 -0.00021918906714 -0.0010472967988 0.0002668806992
          -0.00033158247243 -0.00072349095717 2.471910193e-05 0.00060163962189 -8.8170982053e-06 0.00067638681503
          -0.000162240176 0.00038987651351 -0.00017366198881 -0.00039036053931 -0.00015069343499 -0.00062854442513
          -0.00098549528047 -0.00019610582967 -0.00098677328788 0.00025746590109 -0.00029531537439 -0.00066024117405
          3.569393084e-05 0.00056916131871 7.3448568401e-06 0.00064227945404 -0.0001367458317 0.00037843635073
          -0.00014713294513 -0.00034661515383 -0.00012624176452 -0.0005647786893 -0.00089664326515 -0.00016753739328
          -0.00090295070549 0.00024387118174 -0.00025136457407 -0.00058233336313 4.7606288717e-05 0.00052634981694
          2.6028641514e-05 0.00059822190087 -0.00010615023348 0.00036254731822 -0.00011550145427 -0.00029360299231
          -9.6693751402e-05 -0.00048661979963 -0.00078725448111 -0.00013386954379 -0.00079898181139 0.00022764217283
          -0.0002007958683 -0.00049236661289 6.0875299823e-05 0.00047610455658 4.7302539315e-05 0.00054702721536
          -7.0953356044e-05 0.00034381070873 -7.926649414e-05 -0.00023273973784 -6.2548206188e-05 -0.00039661428309
          -0.00066122564021 -9.5600844361e-05 -0.00067867391044 0.00021054732497 -0.00014484691201 -0.00039334248868
          7.5972311606e-05 0.00042175024282 7.1234360803e-05 0.00049191940343 -3.173895675e-05 0.00032405686215
          -3.9012720663e-05 -0.00016566645354 -2.4387923986e-05 -0.00029770107358 -0.00052305014106 -5.3314743127e-05
          -0.00054641976021 0.00019456402515 -8.4888735728e-05 -0.0002885965223 9.3430659035e-05 0.00036699831253
          9.7907541203e-05 0.00043649793952 1.0849652426e-05 0.00030533262179 4.6163049774e-06 -9.4203169283e-05
          1.7145055608e-05 -0.00019314659585 -0.0003777257225 -7.6535634435e-06 -0.00040710438043 0.00018186586385
          -2.2382784664e-05 -0.00018172430282 0.00011385409016 0.00031590508297 0.00012743841216 0.00038469777792
          5.6140986999e-05 0.00028988689883 5.0948143326e-05 -2.0299075913e-05 6.1380051193e-05 -8.6471292889e-05
          -0.0002306526585 4.0711507609e-05 -0.00026600598358 0.00017481285613 4.1158345994e-05 -7.65054574e-05
          0.0001379391615 0.00027283409145 0.00016000021424 0.00034075253643 0.00010346491035 0.00028015961288
          9.9313925602e-05 5.40145993e-05 0.00010764983745 1.8625374651e-05 -8.7530861492e-05 9.1113630333e-05
          -0.00012869527563 0.00017592430231 0.00010424133507 2.3192709705e-05 0.0001664487645 0.00024239040795
          0.00019582730602 0.00030913131195 0.00015219628403 0.00027875395608 0.00014908285812 0.00012670530123
          0.00015532482939 0.00011836019257 4.5775126637e-05 0.00014292323613 -9.0085154625e-07 0.00018795557844
          0.00016535319446 0.00011341554637 0.00020037432841 0.00022950845596 0.00023531634361 0.00029466103297
          0.00020177518309 0.00028852085234 0.00019969824643 0.00019567461277 0.00020386920369 0.00020885180857
          0.00016318816051 0.00019556845655 0.00011146583711 0.00021361367544 0.00022326211911 0.00019047413662
          0.00024056252732 0.00023904227419 0.00027876597596 0.0003017775889 0.00025168954744 0.00031214926275
          0.0002507144527 0.00025929280673 0.00025266682496 0.00028660459793 0.00025924254442 0.00024877471151
          0.00020280462923 0.00025604380062 0.000276641862 0.00025047929375 0.00028822099557 0.00027616953594
          0.000327233196 0.00033718842315 0.00030216824962 0.00035361008486 0.00030183506897 0.00031491130358
          0.00030251848511 0.00034720197436 0.00032639809069 0.00030115342815 0.00026758777676 3.6728852137e-05
          -0.00020504195709 -0.00036252583959 -5.9712681832e-05 0.00016344287724 -5.2109262469e-05 0.00023964166758
          -0.00011356711184 0.0001344862103 -0.00013265413872 -0.0002312244178 -0.00013227656018 -0.00032563629793
          -0.00047915108735 -0.00013979391952 -0.00046341685811 -2.8548458431e-05 5.9194964706e-05 4.930292198e-05
          -4.1642535507e-05 -4.4565476855e-05 -0.00012453836098 -0.00014737561287 -6.9130124757e-05 0.0002375234908
          0.00046311822371 -0.0001738112187 0.00028919693432 0.00060373969609 7.9042598372e-05 1.6657522792e-05
          -0.00024391009356 -0.000433795969 2.6480502129e-05 -0.00044015730964 8.9643450337e-05 2.3422115191e-05
          -0.00054633209947 0.00014358136104 -0.00024540978484 -0.00030619223253 0.00015112421534 0.0001632583153
          0.00031805274193 0.00034441467142 7.6990181697e-05 0.00011988804181 0.00043855895638 0.00053253187798
          0.00069929874735 0.00083389075007 0.00023476958449 0.00020448854775 0.00058908876963 0.00079959625145
          -0.00022229539172 0.00031677243533 0.00067253998714 -2.291961664e-06 -0.00052135350415 2.048762326e-05
          -0.00060947757447 0.0001568122243 -0.00034413809772 0.0001732531382 0.00037433026591 0.00014076738444
          0.00058649847051 0.00091807468561 0.00020601166761 0.00090547424043 -0.00025602095411 0.00033331848681
          0.00072009483119 -1.3480099369e-05 -0.00058239628561 1.4614671272e-05 -0.00067282962846 0.00016252044588
          -0.00038242596202 0.00017920731625 0.00039903327706 0.00014547347382 0.00063594750827 0.00099521968514
          0.00021234338055 0.00097642489709 -0.000283397967 0.00034357869299 0.00075176125392 -2.5732450013e-05
          -0.00062963517848 8.8163087639e-06 -0.00071442360058 0.00016537000192 -0.00040874135448 0.0001808978559
          0.00041244691238 0.00014984556765 0.00066442065872 0.0010411343537 0.00021154608112 0.0010262393625
          -0.00030061302823 0.00034485946526 0.00076392869232 -3.5537424992e-05 -0.0006571279373 2.3198713279e-06
          -0.00073834793875 0.00016353829415 -0.00042545568431 0.00017802041839 0.00041488974239 0.00014891664614
          0.00067478063283 0.00105971226 0.0002066748857 0.0010474658338 -0.00030889664777 0.00033769512083
          0.00075722904876 -4.4052037993e-05 -0.0006665828987 -5.1016268117e-06 -0.00074462482007 0.00015692590387
          -0.00043272483163 0.00017039729573 0.00040649657603 0.00014335315791 0.00066652649548 0.0010505857645
          0.00019698188407 0.0010418685852 -0.00030865173903 0.00032203466981 0.00073209236143 -5.1343660743e-05
          -0.00065871718107 -1.3601869796e-05 -0.00073416193482 0.0001455664169 -0.00043111448758 0.00015800417168
          0.00038733964902 0.00013301959552 0.00064022757579 0.0010146152927 0.0001825447107 0.001009930158
          -0.00030076905387 0.00029828154948 0.0006896063569 -5.7793091401e-05 -0.00063505081926 -2.3357264581e-05
          -0.00070840388071 0.00012952393445 -0.00042151031084 0.00014093286882 0.00035798584577 0.00011801360961
          0.00059691688512 0.00095348653849 0.00016342537128 0.00095337000675 -0.00028636161005 0.00026700666058
          0.00063134881202 -6.3775994931e-05 -0.00059758214047 -3.4524360672e-05 -0.00066930305911 0.00010902163922
          -0.00040507235099 0.00011939674732 0.00031923374627 9.855141252e-05 0.00053814839339 0.00086962728528
          0.00013984645193 0.00087453704327 -0.00026681894087 0.00022900276235 0.00055938854348 -6.9742025516e-05
          -0.0005488259485 -4.725881081e-05 -0.00061929802177 8.4372230049e-05 -0.00038323071203 9.3712616945e-05
          0.00027216912713 7.4946314271e-05 0.00046594149899 0.00076618505409 0.00011212156096 0.00077651202446
          -0.00024377988302 0.00018524263578 0.00047623147839 -7.6203257777e-05 -0.00049177475739 -6.1721919337e-05
          -0.00056129484437 5.5982782214e-05 -0.00035767981899 6.4286447014e-05 0.00021811465558 4.7604331485e-05
          0.00038274959661 0.00064696383197 8.0656500359e-05 0.00066300918115 -0.00021912214288 0.00013685475278
          0.0003847698099 -8.3740211267e-05 -0.00042986226617 -7.8090713941e-05 -0.00049862655578 2.432792644e-05
          -0.00033035926754 3.1593724998e-05 0.0001586022845 1.6999340005e-05 0.00029140230617 0.00051634776173
          4.5925771701e-05 0.00053831224795 -0.00019494358276 8.5089763161e-05 0.00028821863816 -9.3006485258e-05
          -0.00036692013964 -9.6568983281e-05 -0.00043501300388 -1.0069247764e-05 -0.00030343650724 -3.8422908801e-06
          9.5331786724e-05 -1.6346650227e-05 0.00019504562079 0.00037921452895 8.4516650531e-06 0.00040718613309
          -0.00017354379816 3.1283274438e-05 0.00019004761998 -0.00010473159637 -0.0003071303945 -0.00011739890033
          -0.00037451466778 -4.6662968089e-05 -0.00027928635245 -4.1474952013e-05 3.0126571801e-05 -5.1888455346e-05
          9.7074043879e-05 0.00024083864992 -3.1220133678e-05 0.0002747833496 -0.00015740815434 -2.3177341063e-05
          9.3911010481e-05 -0.00011973727669 -0.00025498165633 -0.00014087896852 -0.00032149034087 -8.4908213466e-05
          -0.00026047410211 -8.0760575656e-05 -3.5107281292e-05 -8.908372547e-05 1.0616438431e-06 0.00010679505067
          -7.2547663876e-05 0.00014654952975 -0.0001491742878 -7.6916934631e-05 3.5578157167e-06 -0.00013890450646
          -0.00021519704023 -0.00016736169346 -0.00028052710695 -0.00012429786148 -0.0002497213427 -0.00012118649465
          -9.8455289844e-05 -0.00012742068793 -8.9326640591e-05 -1.7169708372e-05 -0.00011501916015 2.8095326343e-05
          -0.00015170205734 -0.00012852685177 -7.7161770605e-05 -0.00016332893574 -0.00019281507412 -0.00019734806847
          -0.00025655608624 -0.00016437617887 -0.00024998339359 -0.00016230026085 -0.00015792324848 -0.00016646740551
          -0.00017031389871 -0.00012508258806 -0.00015816667292 -7.4771931395e-05 -0.00016778214194 -0.00017685881176
          -0.00014464253036 -0.00019394073752 -0.00019277323736 -0.00023122029961 -0.00025409652153 -0.00020471450989
          -0.00026403300581 -0.0002037397353 -0.00021196492889 -0.0002056909434 -0.00023848818091 -0.00021156127332
          -0.00020179882995 -0.00015653541777 -0.00020061552641 -0.00022064216319 -0.00019505100499 -0.00023200300348
          -0.0002203045733 -0.00027009102632 -0.0002799112408 -0.0002455971553 -0.00029589681071 -0.00024526406196
          -0.00025798717979 -0.00024594721617 -0.00028948864201 -0.00026912087924 -0.00024458215921 -0.00021172277047
          -6.6777989559e-05 0.00017431877495 0.0003324681893 2.885660615e-05 -0.00019389878435 2.1022779038e-05
          -0.00027100823354 8.2588485384e-05 -0.00016586275888 0.00010177834338 0.00020014120673 0.00010130648297
          0.00029429272399 0.00044790716493 0.00010880127957 0.00043302666745 1.0030788644e-06 -8.6641965027e-05
          -7.7804754255e-05 1.5197158973e-05 1.7583139197e-05 9.5949450042e-05 0.00011972425273 0.000127819716
          -8.9337499958e-06 -0.00014585843019 -8.9644294349e-05 -9.3076341727e-06 7.1913025749e-05 -9.3390017355e-06
          0.00010093876335 -9.3635562735e-06 0.00014886395365 -0.00016692453937 -8.8910046543e-06 -0.00011865871784
          0.00042038931861 -6.0329944063e-06 -0.00043239505612 -0.00025438764715 -5.930433872e-06 0.00024236852187
          -5.923266599e-06 0.00026424741372 -5.9167191466e-06 0.00043329512118 -0.00044529768638 -6.0455740822e-06
          -0.00027626447263 0.00065587903373 -3.5109412693e-06 -0.00066289224196 -0.00039570502122 -3.5097368709e-06
          0.00038874289021 -3.5057673813e-06 0.00040442857426 -3.5131558889e-06 0.00066567159956 -0.00067268451676
          -3.5070693229e-06 -0.0004113924515 0.00080632301979 -1.6236211877e-06 -0.00080954260193 -0.00048946443712
          -1.5928357016e-06 0.00048630253877 -1.5878614477e-06 0.00049611245049 -1.591775117e-06 0.00081236090045
          -0.00081557966769 -1.6242963738e-06 -0.00049927306827 0.0012389594922 -4.6012971211e-07 -0.0012398400577
          -0.00074179412331 -4.1804702278e-07 0.00074100185884 -4.0982197902e-07 0.00074567820411 -4.1813837015e-07
          0.0012418435654 -0.0012427231995 -4.5956824124e-07 -0.00074647029396 0 0
          0 0 0 0 0 0
          0 0 0 0 0
        </DataArray>
        <DataArray type="Float32" Name="uz" format="ascii" RangeMin="-0.2489284724" RangeMax="0.24892793596">
          0.045252345502 0.041670225561 0.039421051741 -2.0330027439e-07 -0.045253239572 -0.039421785623
          -0.041669879109 0.045278988779 0.042914073914 0.028023485094 4.8338091574e-07 -0.042911317199
          -0.04527856037 -0.028022047132 0.042944926769 0.028029087931 -0.042947635055 -0.028030224144
          0.035860206932 5.1108241905e-07 -0.03585941717 0.035923495889 -0.035921610892 -0.035912510008
          -5.3925145949e-07 0.035910472274 1.0303998721e-07 -0.18080385029 -0.16487947106 -0.18080201745
          -0.18816672266 -0.16833819449 -0.18820512295 -0.15880712867 -0.16085484624 -0.16864976287
          -0.17319241166 -0.13306127489 -0.12925899029 -0.14896613359 -0.12883901596 -0.12410148233
          -0.14868010581 -0.11709615588 -0.10870505869 -0.14897303283 -0.1486492455 -0.13914009929
          -0.1364505887 -0.14894331992 -0.14873629808 -0.11711007357 -0.10874699056 -0.12926362455
          -0.12409843504 -0.14896190166 -0.14875748754 -0.1686347425 -0.1731556654 -0.17176945508
          -0.16042031348 -0.17178079486 -0.15611734986 -0.16313844919 -0.137881428 -0.135181427
          -0.14914694428 -0.12654314935 -0.14915111661 -0.1421880424 -0.14914637804 -0.12655776739
          -0.13518373668 -0.14915631711 -0.16312083602 -0.16167239845 -0.15549747646 -0.16167739034
          -0.15315429866 -0.15697592497 -0.14322024584 -0.14174418151 -0.14935810864 -0.13703204691
          -0.14935877919 -0.14556646347 -0.14935639501 -0.13704170287 -0.14174342155 -0.14936180413
          -0.15696747601 -0.15081369877 -0.15016834438 -0.15081894398 -0.14993105829 -0.15033249557
          -0.14892658591 -0.14876489341 -0.14954781532 -0.14827637374 -0.14954797924 -0.14916361868
          -0.14954742789 -0.14828073978 -0.14876124263 -0.14954657853 -0.15033021569 -0.13948433101
          -0.1446018815 -0.1394880563 -0.14655674994 -0.1433943063 -0.15484879911 -0.15605525672
          -0.14972649515 -0.15996274352 -0.14972470701 -0.15288969874 -0.14972795546 -0.15996210277
          -0.15604832768 -0.14972065389 -0.14339931309 -0.12799046934 -0.13894629478 -0.12799324095