<VTKFile type="UnstructuredGrid" version="1.0" byte_order="LittleEndian" header_type="UInt64">
  <UnstructuredGrid>
    <Piece NumberOfPoints="791" NumberOfCells="973">
      <PointData>
        <DataArray type="Float32" Name="ux" format="ascii" RangeMin="-97894.375" RangeMax="116915.15625">
          28736.169922 -25606.160156 -27403.15625 15642.208008 -26154.677734 -30035.005859
          41479.628906 29490.677734 -8041.1860352 -22756.742188 22398.810547 21621.933594
          13986.991211 10540.149414 14713.338867 -14466.667969 -16881.28125 -34801.390625
          -104.44721222 4523.0878906 24030.570312 -6848.7084961 21919.310547 -2653.5827637
          86.657974243 3573.8737793 -15369.370117 -42506.394531 61931.039062 -67415.179688
          -29057.232422 116915.15625 -73382.710938 -49975.859375 -54952.898438 -14134.683594
          -3407.7468262 -5074.6225586 33832.410156 -35503.011719 1967.9862061 25930.332031
          22096.238281 29481.738281 60603.203125 -33451.847656 -28425.789062 10039.543945
          51120.691406 28041.798828 12778.741211 -33919.914062 -153.70872498 -9208.7910156
          -2986.7316895 -12141.572266 -27921.085938 -11756.519531 1471.3210449 -11812.021484
          -25590.658203 -28883.837891 -23220.935547 21661.683594 -1905.5488281 24983.423828
          -23353.164062 -6568.9741211 -9830.1757812 -40655.011719 9689.9990234 -41057.183594
          -7232.5126953 -4895.1225586 2559.1477051 -15546.158203 -30692.878906 -138.99403381
          55114.179688 -11843.792969 -16531.859375 -5114.0595703 47309.40625 20008.267578
          -18961.966797 -26324.585938 19002.308594 -18473.140625 -14646.959961 16796.054688
          -27410.212891 -5370.8476562 21400.783203 1887.0472412 16709.142578 -19640.273438
          -33789.957031 -23530.1875 -363.01516724 -40711.324219 -48635.523438 -15580.041992
          2485.4931641 -27534.228516 -8328.7978516 15204.842773 -8117.034668 25745.177734
          46694.753906 17889.927734 39473.613281 -11610.729492 -16353.713867 -21842.306641
          4622.8486328 -23901.101562 -3436.0358887 -8936.6064453 -3480.5852051 7467.934082
          20117.736328 9443.2636719 -7830.9199219 -12869.203125 -3872.4848633 -37130.539062
          5625.5556641 -18993.839844 -1075.3026123 -6800.0878906 -23149.542969 2385.0183105
          -15084.850586 -5819.7768555 -13030.811523 16718.816406 32167.757812 10468.793945
          -10836.296875 -62702.828125 10290.555664 -35286.636719 -24459.695312 -47088.457031
          49909.476562 23751.390625 21208.898438 22824.353516 -36458.390625 -18253.720703
          3386.0292969 16638.599609 -5769.6108398 -12395.799805 1476.9366455 -40142.570312
          7661.6274414 -44360.121094 21716.269531 -3495.7138672 106811.79688 -6078.5385742
          116.07228088 -12472.582031 -72526.765625 19507.267578 -3497.7021484 10416.146484
          -11818.370117 9742.1152344 7571.140625 12781.216797 -23492.712891 -4968.543457
          57797.960938 19186.433594 15726.357422 -11807.422852 43302.214844 18830.585938
          -27778.628906 95914.851562 -4845.6396484 419.71173096 -17002.232422 44364.015625
          -9957.6259766 30547.332031 -55928.269531 -5922.9223633 -82660.195312 55647.257812
          -78704.0625 421.03164673 5040.1777344 44660.632812 71089.25 61090.039062
          3677.2541504 -27246.113281 -23374.164062 3153.1867676 -6304.3413086 27700.671875
          -66393.039062 4587.8032227 -77820.484375 43819.699219 -72419.382812 -18859.085938
          -6463.7729492 32403.833984 47762.339844 15483.055664 20369.121094 -17370.203125
          6366.5351562 -1674.8898926 -17458.884766 504.02728271 9890.7431641 2257.8083496
          11501.834961 -19584.287109 11699.169922 -4674.9150391 49758.570312 15722.181641
          -13645.244141 6627.1376953 12851.392578 2957.7363281 2065.302002 12429.837891
          16930.931641 -34814.375 -4368.1176758 -19302.181641 8081.1791992 -25070.257812
          -16351.628906 12491.494141 14551.182617 67947.039062 -6050.9658203 2287.1142578
          6887.03125 18885.84375 -6157.3359375 7771.3637695 2475.526123 -7704.9438477
          -34814.890625 -11389.392578 16063.972656 6021.8974609 10735.364258 -4453.6318359
          21945.353516 32811.46875 21841.683594 4599.1650391 -11864.970703 25044.476562
          14370 9138.1904297 -9782.4306641 -14775.425781 -54443.828125 3178.6481934
          3008.1723633 -4430.7167969 -13052.029297 13082.689453 -17602.5 9104.7529297
          63207.144531 -28802.890625 -12350.521484 -4368.9707031 -7868.2924805 -11802.733398
          -10353.771484 -24623.476562 23703.476562 -22689.984375 18598.421875 -8049.5463867
          32511.865234 23841.216797 -5213.4223633 23555.572266 2872.3791504 4619.8793945
          4760.9526367 -877.81561279 36804.050781 -15258.855469 516.6897583 -10787.240234
          21198.207031 -17170.556641 54883.511719 -15702.203125 20928.470703 28283.162109
          -24677.482422 18088.451172 25909.933594 -43144.789062 -7106.5688477 35944.097656
          21846.470703 13708.890625 8166.1435547 26537.076172 12727.348633 -24058.667969
          -9261.5224609 -7567.9672852 9227.0947266 -36482.445312 -40558.609375 -60048.558594
          -4797.715332 -2171.253418 -22336.582031 1494.5098877 -7651.1435547 29962.447266
          -2803.7299805 5734.1665039 24491.226562 -25149.142578 -13930.853516 -10027.857422
          15705.582031 -15307.673828 -19472.482422 -25045.789062 -25742.416016 9837.2265625
          -5260.4775391 2607.4519043 -12405.214844 15626.036133 -2880.2578125 1051.9638672
          110585.40625 -7497.7016602 -40594.367188 6136.9453125 46273.160156 33270.636719
          85052.25 21436.007812 15432.671875 68025.640625 34926.605469 10669.458984
          -16799.333984 5398.5717773 58379.164062 29823.65625 13968.982422 -14238.264648
          11306.517578 -7448.2739258 1201.6430664 4593.9335938 20331.019531 -51472.371094
          35998.753906 16292.15625 9066.453125 20059.246094 353.80718994 -40331.851562
          -16234.566406 1346.3352051 -17861.783203 -30271.212891 25283.091797 -39302.953125
          -19053.564453 -6102.9746094 -3327.4536133 -4848.0429688 26728.431641 38336.34375
          35091.132812 18861.888672 -14431.042969 -206.86502075 -8283.3076172 -10453.742188
          -9085.8857422 -19907.378906 8311.2871094 -8109.2885742 -9740.5546875 24865.308594
          21751.417969 23998.494141 11244.21875 -15829.985352 22077.167969 2703.8464355
          7918.4575195 22580.941406 -19123.134766 6585.9946289 44006.703125 -14220.551758
          9256.1357422 5148.6450195 13547.660156 2896.7946777 4666.1801758 -3755.1801758
          -3137.4174805 -14781.540039 8361.0214844 -16881.974609 -16161.94043 -31742.628906
          -23883.662109 9835.1708984 16559.978516 612.45111084 6170.2651367 26785.957031
          7070.2739258 -13021.290039 8373.015625 -19746.283203 -13441.112305 -62802.734375
          -19398.103516 -56260.050781 -23924.148438 26376.494141 18139.609375 20797.050781
          -20795.121094 -1036.3687744 -8237.6542969 -38797.730469 4507.4960938 -5208.6572266
          -18816.310547 -52844.1875 32500.726562 -29818.570312 -39141.25 -12400.363281
          -7170.5146484 44306.519531 12488.359375 23895.496094 -66824.289062 9834.4306641
          6029.4033203 -26931.167969 -9214.8447266 6019.8193359 -26431.015625 -27394.136719
          5271.2661133 13218.495117 -3226.1391602 14701.742188 -5245.7666016 12461.96582
          11392.461914 8084.4082031 6779.15625 8476.0761719 29754.126953 37615.039062
          9373.7041016 11753.032227 -566.10406494 -18904.765625 19250.861328 26254.546875
          -6798.0761719 29372.177734 22109.345703 53427.023438 4912.9360352 -11226.369141
          13447.844727 16843.056641 17131.302734 23738.896484 391.44442749 12303.290039
          3224.3232422 17569.246094 5938.7636719 4678.3129883 21921.251953 -27266.638672
          3510.0820312 -9546.7822266 -17469.628906 -40350.722656 13287.595703 -2991.8205566
          -38864.222656 -6495.4389648 -6329.0395508 -4332.6635742 3602.1872559 15984.505859
          21841.736328 11342.791016 9165.4033203 -60193.191406 -372.25183105 -14857.6875
          -24027.238281 23831.820312 -19686.099609 -7574.78125 -4383.6728516 7011.4521484
          -2299.9926758 13543.348633 -24022.933594 49895.207031 -3869.9858398 27854.382812
          20952.787109 12258.493164 17151.738281 -30529.068359 -39769.515625 -32556.291016
          -36044.292969 19233.166016 568.74810791 32905.863281 -17812.53125 37218.382812
          4435.8120117 -15330.693359 47939.964844 13867.524414 26275.111328 -19353.242188
          8556.28125 -4899.0048828 13908.557617 56678.179688 -14146.800781 15376.87793
          -18121.365234 7466.8969727 -25088.009766 24353.667969 7758.1396484 -28095.470703
          237.02146912 -21605.103516 12335.133789 -59248.550781 3551.8220215 -20262.207031
          41790.476562 88956.03125 -31758.355469 -8767.5947266 18127.753906 11378.958984
          -14119.513672 -4887.6386719 4569.7822266 -29494.339844 -37200.425781 12760.178711
          8485.7070312 -88632.96875 -13778.746094 -14173.884766 45181.105469 75120.140625
          -54009.300781 -26773.533203 48309.023438 16493.820312 2847.6416016 -32856.859375
          -4458.5498047 -60366.710938 17483.746094 71555.484375 -17381.099609 -39161.175781
          -41933.464844 18018.384766 19757.851562 17333.203125 -38799.640625 -32800.753906
          39158.515625 14198.450195 3722.7775879 -30480.089844 -9002.7958984 -50833.824219
          950.35009766 58572.851562 -8791.6054688 -49125.257812 -27384.673828 11927.746094
          22505.759766 -834.1751709 -12211.12793 -18251.638672 14148.165039 17063.150391
          11987.755859 -9852.4003906 -566.16455078 -69525.5 11662.935547 -51788.800781
          1040.515625 -6186.2460938 -105.39828491 41942.113281 51569.527344 34849.535156
          15300.654297 1752.5787354 -3439.2973633 -19976.542969 -25702.228516 -7012.7768555
          25939.369141 -51435.113281 3228.121582 -84834.101562 46577.707031 -24490.144531
          9168.4726562 -1159.1601562 23381.863281 66819.25 32541.623047 -9573.9423828
          -20413.947266 -17536.787109 -27860.966797 -14115.675781 16311.999023 -5568.2280273
          -2822.5266113 -8389.6757812 -1907.6347656 -9223.7783203 -24695.330078 5592.2402344
          26022.888672 51524.457031 47286.695312 1375.1043701 19524.013672 -2073.1728516
          20964.34375 -20903.9375 -6279.9970703 -14189.324219 10630.604492 37629.214844
          -19770.744141 -20766.785156 -14551.751953 -1966.3375244 19284.707031 16584.478516
          6844.7319336 -2433.0991211 10472.150391 3242.7072754 15109.124023 -23980.744141
          -12788.149414 -76869.476562 24019.300781 -28977.705078 -12570.389648 12572.62207
          -7077.7646484 11327.105469 12189.005859 44884.320312 -18965.25 -10788.209961
          13896.008789 8082.9560547 -2487.6496582 -12601.396484 -4513.4667969 -2435.9050293
          9479.2148438 30254.601562 354.26849365 304.94607544 -2569.4775391 -57314.347656
          -1635.6055908 -43293.3125 8444.625 -41544.566406 -18958.671875 -4447.8833008
          25508.558594 45473.882812 24093.787109 -15878.12793 2733.5727539 22136.412109
          -39130.578125 -5231.6074219 -52209.070312 19982.820312 -10627.313477 -21403.470703
          36050.347656 50875.601562 40850.714844 36041.464844 12928.733398 997.46875
          46370.582031 -45706.828125 -36533.015625 -45631.90625 -15405.773438 -19293.496094
          -7712.1132812 27062.792969 47915.183594 6246.1157227 -5492.7788086 392.95956421
          -19018.927734 -16555.994141 -34072.742188 -55541.503906 -57769.984375 -25955.048828
          -28434.027344 10421.624023 26496.261719 50961.292969 13497.224609 -14401.137695
          -10638.057617 10023.541016 -20178.115234 -27035.128906 -52518.660156 -69917.078125
          -61727.933594 -97894.375 -71171.75 -58110.753906 39765.746094 33690.953125
          21561.443359 15173.092773 29042.34375 -44594.582031 0 0
          0 0 0 0 0 0
          0 0 0 0 0
        </DataArray>
        <DataArray type="Float32" Name="uy" format="ascii" RangeMin="-122613.60938" RangeMax="147633.96875">
          -5851.1655273 7995.8081055 -30668.560547 -536.02508545 -7415.7568359 33625.253906
          -13750.032227 -9048.1054688 -14396.379883 -70539.554688 58177.582031 24401.408203
          34282.75 -49392.621094 19036.216797 -16096.640625 -24782.363281 -29855.597656
          47401 109832.96094 48323.078125 -51975.472656 -27525.386719 1804.5881348
          22971.419922 92.934501648 -36815.117188 14532.141602 13435.945312 -40775.101562
          5355.9189453 54422.292969 -25323.220703 -31915.732422 -42189.6875 31923.285156
          -3192.7792969 44193.441406 -39647.980469 51629.671875 29374.466797 -35360.992188
          60637.824219 -19542.542969 -27066.085938 -35967 -76955.171875 -40600.746094
          -40153.320312 -28245.40625 -22534.707031 -20358.376953 -5617.2426758 -10989.108398
          -14029.120117 20551.09375 -11081.21582 -4303.4257812 -32987.855469 -3550.2380371
          -21681.605469 -18739.462891 23622.3125 -10167.085938 31191.072266 -69.16255188
          -20910.658203 -168.03137207 4107.4584961 -9921.0478516 27267.255859 -9406.8867188
          13416.360352 -1450.0549316 13682.640625 -15903.710938 14926.408203 -786.45172119
          -62599.167969 34999.359375 -4388.140625 14908.871094 18136.3125 3269.3278809
          21938.613281 4829.1582031 31142.091797 2067.4489746 -8726.5087891 7152.6586914
          3345.7956543 -4659.4233398 19034.400391 -10321.280273 -22050.332031 8975.4306641
          5680.8442383 27810.363281 83258.804688 11328.472656 16463.884766 30405.445312
          -5290.8432617 -6046.496582 7996.1166992 19684.839844 17785.787109 8098.7807617
          39753.820312 1739.7949219 32784.804688 12559.338867 11167.745117 1556.7929688
          64069.585938 5471.9379883 8910.9228516 28623.351562 -29298.988281 -7936.3955078
          29614.970703 30208.199219 -12159.370117 -1997.8598633 29557.257812 -7791.7768555
          -17940.587891 19492.847656 27371.015625 -19808.863281 30828.017578 4643.9873047
          -11330.977539 -16124.767578 -10636.092773 -21365.203125 51697.929688 16901.462891
          -29309.253906 -10626.447266 -10207.746094 -9100.3466797 -30875.501953 7010.2192383
          -11639.537109 -26929.615234 26281.101562 10190.661133 -34580.246094 -14723.06543
          -24695.314453 -21174.847656 13076.804688 -26235.365234 -16518.976562 -1195.75
          -18279.388672 -1329.8937988 3289.2585449 -11843.248047 -11823.157227 14055.592773
          -72164.273438 29066.652344 20254.386719 25149.054688 58545.484375 -10819.239258
          397.62759399 -29314.246094 -4315.3208008 -21749.009766 6734.0532227 10210.710938
          -25425.902344 30513.359375 -43155.378906 6362.5302734 -64960.789062 -7415.0986328
          -25061.349609 66171.632812 26057.398438 12204.227539 -37738.679688 2187.8828125
          -29478.933594 -22151.105469 19449.353516 7895.184082 45593.5625 -46262.6875
          58531.066406 -12096.229492 18064.402344 -4638.9912109 -73972.148438 30363.638672
          26854.78125 30007.966797 -17095.269531 -14968.157227 8458.3203125 -4005.3945312
          26603.576172 -1323.9304199 29128.183594 -17843.236328 19743.71875 -24907.658203
          -32955.292969 -6314.0585938 3529.8449707 -14863.834961 35596.894531 1601.7073975
          -11567.666992 29630.974609 7534.3217773 -9820.7128906 57618.628906 -13116.455078
          -78481.25 35825.011719 -55843.078125 -33375.410156 -84685.453125 -31560.685547
          26486.583984 -26498.521484 47521.71875 -17183.996094 -32867.441406 8592.1220703
          -13988.981445 1752.1600342 14825.541016 -1704.777832 -29705.533203 38013.621094
          -38350.398438 -25894.035156 -34310.835938 -36686.835938 -16108.515625 -18298.966797
          31466.244141 -7961.5976562 -49639.28125 -12013.957031 2720.901123 -4291.9477539
          39251.800781 6207.9726562 12938.28125 16395.916016 13051.039062 7138.6464844
          -55360.59375 -1923.1745605 18309.216797 -9742.6074219 63831.4375 -4752.0258789
          10436.37207 4354.1430664 2179.8154297 9656.8085938 -2590.3771973 26760.230469
          48545.820312 19318.464844 34149.375 -4936.5546875 -21075.095703 -2853.9404297
          5799.9052734 -20898.849609 18414.195312 3707.3657227 23043.517578 3468.7937012
          25023.601562 -7315.4311523 6897.1430664 3184.7475586 10370.892578 -274.76092529
          74203.460938 -38390.003906 -18776.955078 -7722.3364258 -43300.714844 -33476.679688
          17593.978516 10604.71582 43478.402344 1683.5545654 -18026.132812 -1619.5665283
          -12797.879883 -13904.246094 -7168.4697266 4821.6333008 34387.214844 -19980.652344
          -8768.5351562 -505.91558838 6261.5952148 -15550.977539 6234.5332031 -2970.6171875
          29518.630859 -16170.12793 -15180.347656 18156.035156 24572.898438 -8811.2363281
          -13279.235352 -27291.152344 -30754.501953 12273.512695 -6972.5966797 19853.341797
          30401.009766 34073.183594 -6128.6948242 -4899.6948242 -3146.0356445 -8667.5449219
          7745.168457 2374.1350098 29587.673828 -9943.1582031 -17760.691406 -8709.5244141
          -9110.2558594 2620.8376465 8906.0234375 12619.439453 -22406.431641 42190.136719
          7261.4853516 -2334.6955566 -7707.1508789 -13735.637695 -2353.4885254 -4751.8071289
          -640.60314941 -9138.1279297 11355.757812 -50203.109375 -13726.286133 6.2823648453
          53545.589844 10627.683594 -67429.140625 53722.800781 -8532.8222656 4355.2646484
          -9440.6298828 -23539.806641 2349.3376465 -9333.5507812 3383.1594238 18731.251953
          17677.267578 31423.853516 -634.44000244 37708.011719 54493.289062 1830.5285645
          -5412.2597656 -11864.561523 -20238.802734 -16560.417969 69156.640625 -18643.792969
          8385.3447266 14677.448242 -17969.783203 -9104.5429688 20893.285156 -5693.3300781
          5676.1201172 -30998.541016 -19256.939453 7020.1655273 -4059.282959 23515.904297
          -29651.166016 -29782.335938 -21601.976562 -3295.4262695 -8478.4248047 -9051.5478516
          13596.149414 28721.091797 1808.4589844 11010.257812 15385.926758 -25388.494141
          -17787.019531 -58948.691406 -6207.7368164 -43393.203125 4193.5292969 43009.25
          -3883.6923828 -78226.859375 18548.939453 37211.832031 -55830.882812 39021.59375
          -7931.0415039 35773.421875 -4326.9174805 772.50158691 16739.212891 -18017.363281
          22592.773438 20680.449219 15338.902344 -21792.78125 554.84307861 -39153.621094
          18777.908203 9642.3984375 7678.2070312 15121.34082 -1060.6387939 1047.5914307
          11026.667969 6764.0341797 24061.142578 -14970.008789 26936.763672 34904.882812
          16515.103516 11690.886719 23320.628906 53117.242188 7051.3999023 7342.3447266
          6570.4794922 -27771.1875 16929.095703 8735.5605469 2107.784668 29214.527344
          30063.613281 -10416.267578 -5883.128418 14343.948242 -38189.042969 60485.632812
          44689.367188 74236.054688 8484.3105469 -27304.740234 21673.660156 -5351.8481445
          37647.050781 -4193.3681641 1463.9665527 19021.990234 -13584.996094 -36640.621094
          -11839.948242 -35576.605469 -22262.099609 -12706.022461 18643.509766 -18947.337891
          13458.977539 -56639.964844 15199.710938 -13536.864258 12704.710938 -48826.71875
          -29433.484375 -17449.810547 -464.19937134 -22441.757812 -14726.822266 -20113.171875
          -15483.824219 -49299.601562 -27145.126953 -100579.17188 -14490.748047 -25210.341797
          -3577.9521484 18092.162109 -1600.9946289 -35554.746094 -19477.253906 -1614.2109375
          -13344.923828 8410.8164062 -6502.1962891 -12173.799805 5830.9267578 23046.033203
          6920.3681641 -40920.46875 13286.18457 30854.445312 8765.6962891 31876.191406
          11174.723633 23424.560547 -3397.5231934 -3535.0925293 -8760.7363281 8194.2490234
          -15921.638672 -59159.582031 -2728.6965332 9621.8408203 4687.6098633 -55188.949219
          13724.595703 645.25097656 -20287.029297 38997.0625 8458.4101562 -1979.12854
          -13821.529297 -2982.9606934 10787.238281 71141.492188 8132.206543 -35625.417969
          -8196.3837891 3346.6953125 -11595.21875 -13845.366211 -8577.7871094 -26069.259766
          -38974.171875 33368.433594 -12050.848633 -13641.714844 -15144.71582 25411.835938
          38056.84375 111676.17188 462.95458984 1543.1063232 27640.283203 -32374.558594
          12784.504883 47793.664062 4788.5083008 -38100.105469 7672.2944336 3799.8798828
          -36465.019531 -31990.181641 -24560.617188 -18669.912109 27047.052734 64694.449219
          5533.7797852 13885.223633 48233.898438 -32632.240234 24216.447266 18330.953125
          12129.976562 -6828.3740234 48606.160156 -1188.4824219 -27642.226562 -48772.984375
          -3264.7749023 -15561.945312 -15668.204102 30177.0625 11556.993164 -9798.7773438
          13315.154297 11446.389648 561.6038208 30278.980469 2800.1257324 30564.636719
          23625.296875 4406.9614258 -25191.365234 -30552.947266 18535.332031 20460.162109
          9226.6318359 14957.132812 12134.219727 19139.097656 -35839.304688 34725.976562
          -27842.113281 54975.222656 -2641.5515137 -37149.484375 -59058.398438 -19262.587891
          -39879.9375 -7180.8945312 -2885.0385742 26133.617188 10893.74707 8225.3964844
          3396.5541992 30275.275391 -50101.972656 18786.759766 -19991.9375 19493.544922
          5583.7431641 -53506.875 -18616.992188 -21649.949219 -21222.957031 3329.7583008
          -15868.668945 20092.583984 -584.39477539 11015.433594 694.93774414 -32101.222656
          13621.216797 17878.068359 7839.8999023 49250.679688 42701.820312 -21509.994141
          37180.101562 -42685.59375 7985.3637695 22617.328125 -1997.3181152 -2797.2897949
          11170.780273 15946.371094 -7672.3144531 -71742.304688 56973.035156 -17418.160156
          23426.023438 9169.5380859 20336.697266 55845.851562 50741.539062 -10980.939453
          29040.226562 13627.839844 15704.803711 11460.564453 -738.37329102 -37827.832031
          10094.458008 -47661.699219 20619.455078 -65969.171875 -3617.0356445 -30006.453125
          -13300.00293 -619.21478271 -17293.910156 -37812.113281 22136.888672 -8463.7822266
          948.02307129 -4614.3730469 325.67236328 -2059.0019531 5244.0405273 8407.7519531
          -19381.269531 -18751.535156 3657.0170898 -14776.724609 -2317.2233887 -9200.8144531
          -333.63644409 8397.4423828 3399.7141113 -660.28546143 1543.8856201 -1720.3828125
          44924.621094 23036.414062 6913.7929688 13551.007812 11700.220703 -7469.3691406
          -19831.835938 48563.925781 -15443.335938 -31580.765625 22415.941406 -46334.789062
          5019.2270508 -7325.6689453 11793.897461 9514.2011719 -12249.082031 -23736.447266
          -8337.4042969 -47740.410156 24487.048828 -5397.34375 14181.061523 -4980.2958984
          -3849.0129395 -37045.875 -49153.640625 -13374.991211 28336.335938 27781.246094
          -25057.824219 -122613.60938 2638.6223145 14536.674805 46824.683594 -12466.442383
          -11965.469727 91626.859375 -11684.456055 -29026.777344 -32781.449219 18489.623047
          147633.96875 -21426.34375 -101992.82812 68232.34375 53078.269531 -58567.832031
          20309.367188 46127.945312 -77135.984375 51523.320312 -44074.703125 10654.026367
          28354.748047 -65563.828125 4532.1196289 75497.421875 -18974.783203 -21246.492188
          -66057.820312 6924.5073242 19669.742188 -17040.802734 26473.634766 -25830.509766
          70102.8125 54853.21875 -94344.601562 15866.992188 85985.835938 -77552.351562
          -93164.195312 5346.2597656 -4496.8564453 -87004.226562 128257.04688 -72636.460938
          -12097.477539 -2904.3234863 33060.695312 -25043.361328 -30160.451172 -61185.882812
          -21217.072266 -64590.597656 -34564.359375 -47940.945312 0 0
          0 0 0 0 0 0
          0 0 0 0 0
        </DataArray>
        <DataArray type="Float32" Name="uz" format="ascii" RangeMin="-75525.953125" RangeMax="79309.671875">
          34462.238281 -74561.171875 -4874.7456055 -4545.9853516 -2068.1374512 -36705.417969
          -8573.9814453 4119.5463867 -7374.4008789 -22922.193359 1875.2110596 13640.929688
          -6834.7910156 -23967.458984 25171.341797 21326.595703 -14710.408203 7279.5961914
          -3485.4089355 43384.84375 8573.171875 -4113.2504883 -2818.6174316 -3645.3479004
          27435.009766 11532.129883 48055.578125 -6094.4550781 26270.164062 9276.3769531
          -26619.015625 -22192.136719 24486.183594 1801.9752197 -16809.019531 -13821.739258
          -32202.710938 49169.042969 18261.488281 35906.609375 24294.625 -1162.5014648
          21444.953125 9553.1708984 -4367.8925781 28884.046875 6471.8071289 26161.576172
          6936.9316406 9660.8505859 10256.469727 28410.417969 27771.857422 21020.431641
          31359.3125 5302.1542969 1532.7481689 18769.003906 23819.90625 1612.5307617
          56506.203125 18245.714844 8827.0439453 -5423.140625 37852.65625 54.311798096
          35074.449219 8926.6210938 15335.780273 16782.888672 1972.0982666 15331.567383
          -1196.5056152 -4436.7807617 33241.605469 15600.114258 60346.398438 21069.03125
          26686.826172 -1288.071167 26908.607422 -1262.7092285 40696.347656 8524.9511719
          20592.3125 17968.707031 3339.3344727 14911.03418 -9592.5742188 -11505.615234
          35008.335938 7003.7822266 29288.458984 -4695.6235352 13805.21582 9162.7832031
          -21912.945312 -9631.4003906 17079.359375 -18518.572266 9458.0234375 -9063.5859375
          5611.300293 -23144.527344 -24501.121094 -16808.96875 4205.6015625 8777.8720703
          10644.927734 5447.4160156 2258.6730957 7675.4121094 -29424.884766 733.00933838
          5780.449707 -2809.8439941 6149.8779297 -9896.5878906 -4864.0673828 -18387.761719
          -12672.59082 -6806.0175781 2227.548584 11974.44043 -7740.3300781 -5402.3603516
          -2911.6491699 14199.982422 -22075.449219 15176.545898 -14455.390625 5599.7299805
          -18394.160156 10246.850586 1911.9570312 -5922.0419922 -783.2121582 17882.654297
          -6643.8417969 18220.621094 1638.605957 1532.2872314 -3625.2312012 5388.2988281
          -30226.130859 6565.1416016 -8906.8828125 -8758.6357422 -8722.6533203 -32246.724609
          -1492.4827881 -30589.65625 -18803.283203 -7263.2661133 -16772.830078 18856.679688
          57218.992188 11285.583984 22826.675781 11344.681641 10332.268555 31052.980469
          79309.671875 3006.3115234 49238.6875 -23169.064453 32082.003906 -30102.505859
          -27191.234375 -8422.8642578 30170.117188 18376.535156 56413.589844 4272.105957
          31574.185547 12809.620117 41364.699219 40462.378906 70283.132812 14395.296875
          43206.472656 15639.839844 25958.017578 -7632.671875 -16421.380859 -452.08651733
          19794.953125 21740.414062 40698.226562 23504.974609 259.7015686 -8131.9287109
          9321.8769531 469.31906128 -145.66677856 -536.91491699 18179.994141 -9298.2636719
          -13414.337891 -13844.487305 -15441.193359 -24468.458984 -5914.1118164 3397.1257324
          21758.623047 10001.888672 -7961.3413086 -5640.284668 -4134.3271484 -12451.842773
          -15067.624023 -6067.1953125 -19980.662109 4027.4074707 -5086.0854492 -5770.6767578
          2404.5654297 -5100.1142578 2182.3894043 4445.7753906 6092.7333984 6449.3203125
          -7058.0327148 -935.28649902 -14383.487305 9522.0732422 -355.5668335 6512.8330078
          -20148.724609 5541.8491211 9603.5859375 1282.3579102 9365.6318359 12194.145508
          13571.757812 -13025.569336 -26007.310547 2807.8459473 -44782.773438 -15333.584961
          -25764.166016 5284.2861328 -10767.580078 3948.640625 -29559.78125 -9682.3710938
          857.37768555 -292.57492065 8245.9101562 2536.5683594 1391.7493896 9055.8779297
          9309.0742188 974.62536621 6037.1772461 4830.5708008 6983.8105469 21933.6875
          10534.979492 3531.605957 33820.699219 755.12805176 9939.4072266 4325.0942383
          10610.771484 16748.775391 5269.1982422 8693.1435547 14162.655273 8237.7109375
          -14378.69043 -5598.2094727 -36085.054688 -18024.376953 -29312.273438 -10182.371094
          -2544.8881836 -21596.730469 -9368.40625 -16967.003906 -4325.2280273 -9657.0527344
          -3828.8154297 -1680.0506592 -19230.982422 -12216.834961 -12014.932617 7022.2036133
          -29509.351562 -19980.210938 -49335.734375 -11327.785156 -24857.53125 -18395.041016
          -24710.060547 -25742.515625 -10892.164062 -2268.0117188 -38982.433594 -15939.416992
          -34362.472656 -15154.167969 -34669.734375 -10138.916016 -22295.236328 4785.7880859
          -11059.391602 -2581.9116211 -26234.121094 -49885.296875 -4909.7939453 -21039.404297
          -26929.96875 -22263.847656 -20544.890625 -8186.4228516 -24496.308594 6084.0698242
          -50122.195312 -24293.740234 -12967.233398 15221.142578 294.97039795 3554.4665527
          -23949.287109 -59892.230469 4839.7084961 -10646.886719 -18212.789062 -35786.023438
          492.21435547 2121.9472656 -10215.673828 3472.7397461 -12082.751953 -7351.5366211
          -5404.4990234 2606.3051758 -7636.5585938 -613.38122559 -11342.043945 -19978.832031
          1162.1425781 -2005.8286133 2026.6970215 -5507.1079102 -654.54333496 -51344.238281
          -63127.9375 11131.543945 -39196.898438 -42098.632812 2606.9528809 17109.875
          38728.640625 26247.716797 3449.6154785 -10249.610352 10238.624023 14083.017578
          19300.476562 -16514.115234 13243.741211 -15729.40918 11955.259766 25091.201172
          -11006.811523 18135.775391 -386.48294067 -5583.8007812 -26717.541016 -63248.417969
          4892.2172852 24801.300781 19350.662109 20493.611328 -32230.654297 32430.183594
          -40616.160156 -840.42840576 -31807.970703 -27188.306641 -29178.958984 -10646.033203
          -2617.4685059 5922.4277344 -16427.394531 -2839.9326172 -46708.796875 16085.282227
          -42268.179688 22680.417969 -26510.097656 -7481.4780273 -11857.722656 9596.4277344