<VTKFile type="UnstructuredGrid" version="1.0" byte_order="LittleEndian" header_type="UInt64">
  <UnstructuredGrid>
    <Piece NumberOfPoints="791" NumberOfCells="973">
      <PointData>
        <DataArray type="Float32" Name="ux" format="ascii" RangeMin="-0.44165089726" RangeMax="0.42153513432">
          0.039354778826 -0.0633873716 0.074528306723 0.054470539093 0.039002552629 0.072286330163
          -0.062469929457 -0.09094324708 -0.24388512969 -0.19765557349 -0.10588062555 -0.2413328737
          -0.090568959713 -0.19671308994 0.19255180657 0.14646199346 0.18981781602 0.1450997591
          -0.14955626428 -0.24169240892 -0.14693193138 -0.27356469631 -0.26909610629 0.21861128509
          0.1905144155 0.22334085405 -0.025864690542 0.067570343614 -0.059210777283 -0.10136987269
          0.060439884663 -0.061193380505 -0.10170017928 0.093771889806 0.085532397032 0.20429688692
          0.1918142885 -0.059331230819 -0.23880159855 -0.15390071273 -0.061257749796 -0.23317180574
          -0.15197129548 -0.10176038742 -0.10184784234 -0.016940589994 -0.02065686509 0.093897335231
          0.085530243814 -0.2908551693 -0.28336623311 0.067845739424 0.060493908823 0.2048715204
          0.19183601439 0.25685924292 0.24200256169 -0.23824124038 -0.23315583169 0.074721425772
          -0.056852065027 -0.10066045821 0.10196338594 0.21675296128 -0.056932460517 -0.24328246713
          -0.15515598655 -0.10096026212 -0.012966930866 0.10211247951 -0.29738974571 0.075082987547
          0.21731698513 0.2713162303 -0.24283820391 0.082243345678 -0.053868722171 -0.099236011505
          0.11041786522 0.22918532789 -0.053900647908 -0.24662649632 -0.1555339098 -0.099450260401
          -0.0084487199783 0.11061625183 -0.30261743069 0.082673437893 0.2297719717 0.2856066525
          -0.24618601799 0.090316712856 -0.050032164901 -0.096770316362 0.11938469112 0.24186465144
          -0.050032317638 -0.24881507456 -0.15483477712 -0.096991032362 -0.0031785808969 0.11958196014
          -0.30651631951 0.090794026852 0.24247272313 0.30007937551 -0.24832223356 0.098766639829
          -0.04566783458 -0.093794085085 0.12871204317 0.2547673285 -0.045650336891 -0.25018504262
          -0.15350091457 -0.093975633383 0.002569164848 0.12891091406 -0.30959606171 0.099241696298
          0.25535383821 0.314676404 -0.24971213937 0.10763645917 -0.040772076696 -0.090270802379
          0.13841257989 0.26796013117 -0.040792111307 -0.2508148551 -0.15154132247 -0.090420529246
          0.0087753087282 0.13856740296 -0.31184276938 0.10801130533 0.26845374703 0.32947933674
          -0.25046896935 0.11503323168 -0.036945998669 -0.087676048279 0.14652556181 0.2791993916
          -0.036979831755 -0.25186008215 -0.15032191575 -0.087814763188 0.013775665313 0.14661879838
          -0.31433424354 0.11525972188 0.27954012156 0.34209370613 -0.25160551071 0.11992658675
          -0.034985624254 -0.086723454297 0.15201406181 0.28727415204 -0.034985374659 -0.25393608212
          -0.15051323175 -0.086728356779 0.016726087779 0.15207666159 -0.31772196293 0.1201056838
          0.2874994874 0.35133427382 -0.25384971499 0.12230651081 -0.035225916654 -0.087883330882
          0.15495049953 0.29248192906 -0.035109814256 -0.25774541497 -0.15267065167 -0.087685391307
          0.017431503162 0.15503841639 -0.32272046804 0.12259154767 0.29270002246 0.35758584738
          -0.25785470009 0.12314432859 -0.036885421723 -0.090375103056 0.15626685321 0.29598081112
          -0.036729857326 -0.26274135709 -0.15612070262 -0.090055651963 0.016560595483 0.15633358061
          -0.3287679553 0.12338257581 0.29609039426 0.3620518744 -0.26298126578 0.12210845947
          -0.039947673678 -0.094134688377 0.15563164651 0.29709768295 -0.039788279682 -0.2685970366
          -0.16066984832 -0.093784093857 0.014163532294 0.15563300252 -0.33553415537 0.12221962214
          0.2970328331 0.36390259862 -0.2689281702 0.11906793714 -0.044939231128 -0.099776215851
          0.15294827521 0.296122998 -0.044705450535 -0.27609428763 -0.16702494025 -0.099252969027
          0.0098614124581 0.15296156704 -0.34384205937 0.11918993294 0.29595452547 0.36361575127
          -0.27658066154 0.1146832779 -0.050976835191 -0.10629912466 0.14881575108 0.29339954257
          -0.050847060978 -0.28452908993 -0.17432627082 -0.10597982258 0.0042907828465 0.1487814337
          -0.35292932391 0.1146415472 0.29319408536 0.36152768135 -0.28491532803 0.10969149321
          -0.057601865381 -0.11340200901 0.14411751926 0.29013305902 -0.057551309466 -0.29359939694
          -0.1822360158 -0.11320199072 -0.0018293497851 0.14409378171 -0.36264148355 0.10965941101
          0.28998106718 0.3589553535 -0.2938427031 0.10501652211 -0.064092956483 -0.12044624984
          0.13978146017 0.28729912639 -0.063979193568 -0.30265280604 -0.19007205963 -0.12019431591
          -0.0077202217653 0.13981808722 -0.37242770195 0.10512001812 0.28730794787 0.35686951876
          -0.30283176899 0.10219553858 -0.068227902055 -0.12491690367 0.13715299964 0.28575643897
          -0.06816931814 -0.30870437622 -0.19521610439 -0.1247831285 -0.011453275569 0.13716201484
          -0.37903103232 0.10226569325 0.2857209146 0.3558165431 -0.3087990284 0.10277482122
          -0.068333521485 -0.12524804473 0.13785973191 0.28709349036 -0.068359069526 -0.30988374352
          -0.19587218761 -0.12527741492 -0.011384882964 0.13787476718 -0.38041099906 0.10276503116
          0.28711548448 0.35747131705 -0.30985587835 0.10634446144 -0.064894556999 -0.12191719562
          0.14161591232 0.29103046656 -0.064859494567 -0.30670079589 -0.19254393876 -0.12189501524
          -0.007830391638 0.14165174961 -0.37726899981 0.10646737367 0.29113841057 0.36159577966
          -0.30667471886 0.11120774597 -0.060170639306 -0.11727549136 0.14650842547 0.29607343674
          -0.060129154474 -0.30210888386 -0.18787054718 -0.11720920354 -0.0030195110012 0.14653341472
          -0.37271657586 0.11125557125 0.29609957337 0.36667048931 -0.30211210251 0.052698258311
          -0.063401088119 -0.10277320445 0.077162027359 0.17806495726 -0.062436405569 -0.22674316168
          -0.14955040812 -0.10091590136 -0.02411672473 0.077674202621 -0.27483847737 0.054558556527
          0.17969246209 0.22663988173 -0.22740513086 -0.06275305897 -0.22320100665 -0.10037844628
          -0.02516409196 0.074216946959 0.05170911178 0.17368166149 0.075465075672 -0.068021081388
          -0.11635387689 0.083184972405 -0.065532363951 -0.11553830653 0.10384236276 0.11284648627
          0.22925084829 0.24274118245 -0.067112930119 -0.26466855407 -0.1731274426 -0.06479550153
          -0.27083140612 -0.17482022941 -0.11283510923 -0.11285591125 -0.020419100299 -0.016121486202
          0.10239444673 0.11175442487 -0.32591462135 -0.33349773288 0.072277128696 0.080768100917
          0.22385075688 0.23865193129 0.28505679965 0.30132085085 -0.27002009749 -0.27496179938
          0.090456813574 -0.062915295362 -0.11438321322 0.12120873481 0.25517308712 -0.062316436321
          -0.2755689621 -0.17592719197 -0.11218746752 -0.011950463988 0.12027589977 -0.33990138769
          0.088401705027 0.25171247125 0.31609466672 -0.27898350358 0.097629383206 -0.060186013579
          -0.11298780888 0.12955057621 0.26735028625 -0.059825800359 -0.28053042293 -0.17697657645
          -0.1116232574 -0.0077156596817 0.12893274426 -0.34630477428 0.096226871014 0.26506140828
          0.33087623119 -0.28269517422 0.10484687984 -0.057008977979 -0.11102341115 0.13803516328
          0.27929389477 -0.056917589158 -0.28488996625 -0.17744468153 -0.1106691882 -0.0031049407553
          0.13786171377 -0.3517716527 0.10447008908 0.27867907286 0.34554159641 -0.28548419476
          0.11176814139 -0.053767345846 -0.10886436701 0.14617137611 0.29060092568 -0.053964387625
          -0.28873184323 -0.17755867541 -0.10956970602 0.0014680140885 0.14647084475 -0.35651680827
          0.11240749061 0.29168173671 0.35951521993 -0.28761675954 0.11791639775 -0.050989367068
          -0.10703536868 0.15342827141 0.30074161291 -0.051485341042 -0.29262581468 -0.17792792618
          -0.10882554203 0.0054433783516 0.15416441858 -0.36124545336 0.11956788599 0.30355069041
          0.3722243607 -0.2898851037 0.12261050195 -0.049582477659 -0.10659796745 0.15920621157
          0.30939644575 -0.050301335752 -0.29764062166 -0.17957663536 -0.10926958919 0.0080447355285
          0.16040763259 -0.36716705561 0.12528531253 0.31379172206 0.3832770288 -0.2934076786
          0.12637245655 -0.048918433487 -0.10682385415 0.16389258206 0.31670424342 -0.049789965153
          -0.30264618993 -0.1816252321 -0.11020641029 0.0098073491827 0.16544826329 -0.37305095792
          0.12985639274 0.32235696912 0.39266300201 -0.29721936584 0.13032376766 -0.04803321138
          -0.10686095059 0.1686258316 0.32409083843 -0.049084488302 -0.30691343546 -0.18330167234
          -0.11078586429 0.011703598313 0.1703517586 -0.37830343843 0.13413749635 0.33043313026
          0.40176382661 -0.30073004961 0.13426093757 -0.04711953178 -0.10696615279 0.17334578931
          0.33144035935 -0.048233836889 -0.31083038449 -0.1848115623 -0.11113084108 0.01368904952
          0.17516638339 -0.38334286213 0.13832008839 0.33815491199 0.41064921021 -0.30425390601
          0.13676278293 -0.047540813684 -0.10841860622 0.17648664117 0.33722913265 -0.048639170825
          -0.3153296411 -0.1873986423 -0.11255160719 0.014224726707 0.17832455039 -0.38903555274
          0.14083862305 0.34395191073 0.41769900918 -0.30878540874 0.13718393445 -0.04965171963
          -0.11136955023 0.17730514705 0.34022933245 -0.050677068532 -0.32043740153 -0.19118790329
          -0.11522710323 0.012954502366 0.17902265489 -0.39529931545 0.14100503922 0.34653112292
          0.42145168781 -0.31432303786 0.13516801596 -0.053550872952 -0.11593143642 0.17548276484
          0.34005713463 -0.054492518306 -0.32630127668 -0.19628894329 -0.11943572015 0.0096138725057
          0.17698481679 -0.40219241381 0.13850681484 0.34562242031 0.42153513432 -0.32085421681
          0.13173343241 -0.058715637773 -0.12178143114 0.17210936546 0.33820769191 -0.059445127845
          -0.33268114924 -0.20234425366 -0.12455066293 0.0049900952727 0.17337696254 -0.40964567661
          0.13455222547 0.34282663465 0.41973531246 -0.32823735476 0.12794297934 -0.064104676247
          -0.12777924538 0.1683743149 0.33586922288 -0.064649954438 -0.33916902542 -0.20854642987
          -0.1298994571 8.8020555268e-05 0.16933257878 -0.41718292236 0.13010378182 0.33938032389
          0.41731289029 -0.33580106497 0.12455730885 -0.069079890847 -0.13339301944 0.16500252485
          0.33391869068 -0.069519072771 -0.34506225586 -0.21427172422 -0.13489301503 -0.0044628940523
          0.16558581591 -0.42405846715 0.12585672736 0.33615195751 0.41516962647 -0.34280523658
          0.12046484649 -0.074017599225 -0.1387771517 0.1608966589 0.33061951399 -0.074214808643
          -0.35005068779 -0.21945236623 -0.13951405883 -0.0091278869659 0.16121558845 -0.4297721982
          0.12121721357 0.33183440566 0.41160303354 -0.34885337949 0.11543859541 -0.079563297331
          -0.14454619586 0.1557084918 0.32589772344 -0.079656712711 -0.35537877679 -0.22506643832
          -0.14482218027 -0.014554087073 0.15579606593 -0.4355905354 0.11562526226 0.32626286149
          0.40650331974 -0.35496798158 0.10948833078 -0.085635773838 -0.15069130063 0.14972737432
          0.32005175948 -0.085638798773 -0.36129719019 -0.2311090529 -0.150730744 -0.020584156737
          0.14978258312 -0.44165089726 0.10957930237 0.3201482892 0.40050375462 -0.36117219925
          0.062175616622 -0.067725464702 -0.11181081086 0.08919108659 0.20271024108 -0.066454537213
          -0.24830500782 -0.16360639036 -0.10858145356 -0.023894682527 0.089140437543 -0.30340111256
          0.062720641494 0.20164853334 0.25546005368 -0.25160366297 -0.06340508163 -0.22708134353
          -0.10207033902 -0.025164717808 0.076047278941 0.053387556225 0.17777954042 -0.1549179554
          -0.1877156347 -0.15728729963 -0.075233019888 -0.087009839714 -0.073903657496 -0.024517796934
          0.02631845884 0.037873256952 0.10804373026 0.10585251451 0.13838145137 0.025031743571
          -0.11778550595 -0.14049676061 -0.11781100184 -0.057781353593 -0.066910423338 -0.057635903358
          -0.020588546991 0.016582578421 0.02577220276 0.076623298228 0.076760575175 0.09939981997
          0.016770588234 -0.082957081497 -0.098151013255 -0.081500276923 -0.040030650795 -0.046784639359
          -0.040778700262 -0.014554555528 0.010972933844 0.017726672813 0.052503477782 0.054023910314
          0.069212861359 0.01181549672 -0.051234509796 -0.059653870761 -0.048508826643 -0.023329984397
          -0.027972904965 -0.024792416021 -0.0079788705334 0.0072653326206 0.012065799907 0.032683994621
          0.035448756069 0.043890230358 0.0088478727266 -0.024157870561 -0.026266818866 -0.019496865571
          -0.0088008008897 -0.011672356166 -0.011268117465 -0.0023682066239 0.0035726688802 0.0069793853909
          0.014781579375 0.019522709772 0.021722510457 0.006217578426 0 0
          0 0 0 0 0 0
          0 0 0 0 0
        </DataArray>
        <DataArray type="Float32" Name="uy" format="ascii" RangeMin="-1.8593899012" RangeMax="1.3400229216">
          -0.77728563547 -0.77919244766 -0.7739367485 -0.56951725483 -0.37245044112 -0.41216212511
          -0.39836016297 -0.77674674988 -0.78224164248 -0.7015516758 -0.56929737329 -0.3882214129
          -0.37254741788 -0.45033866167 -0.78158587217 -0.70164459944 -0.38826373219 -0.45012316108
          -0.76323986053 -0.58548790216 -0.43408292532 -0.76241523027 -0.43336716294 -0.43357056379
          -0.58522284031 -0.76263606548 -0.56703585386 0.31082767248 0.18079978228 0.31087598205
          0.33422800899 0.20919686556 0.33424073458 0.13117097318 0.16148604453 0.2116728723
          0.2388305217 -0.079645358026 -0.11028768867 0.050711978227 -0.040588136762 -0.069841213524
          0.084252148867 -0.21010145545 -0.16512936354 0.050655845553 0.084240101278 -0.029779775068
          0.0071462569758 0.050909187645 0.084469623864 -0.21005058289 -0.1651288718 -0.11019839346
          -0.069751776755 0.050970379263 0.084482915699 0.21172878146 0.238834396 0.29296714067
          0.15787817538 0.29299491644 0.10630809516 0.18998111784 -0.1126196906 -0.14445835352
          0.022722279653 -0.24798132479 0.022692203522 -0.060829933733 0.022891456261 -0.24789552391
          -0.14426366985 0.023041862994 0.18993599713 0.28030353785 0.14055681229 0.28028595448
          0.087244406343 0.17373090982 -0.13915455341 -0.17209263146 0.00079065893078 -0.27916797996
          0.00076755404007 -0.085598543286 0.0009733120678 -0.27907717228 -0.17187930644 0.0011158954585
          0.1737369895 0.27315309644 0.12905712426 0.27316227555 0.074025660753 0.16326622665
          -0.15946677327 -0.19334419072 -0.015050773509 -0.30386438966 -0.015151538886 -0.10427815467
          -0.014792527072 -0.30379185081 -0.19330202043 -0.014828952029 0.16332030296 0.2728664577
          0.12456102669 0.27287429571 0.067904800177 0.15977434814 -0.17234401405 -0.2072083503
          -0.023732218891 -0.32093855739 -0.023849975318 -0.11558763683 -0.023460593075 -0.32089561224
          -0.20720000565 -0.023544605821 0.15982803702 0.27968886495 0.12722855806 0.27959927917
          0.069086290896 0.16347247362 -0.17775163054 -0.21359072626 -0.025173043832 -0.33033153415
          -0.025223765522 -0.11943358928 -0.025003705174 -0.33032652736 -0.21362230182 -0.024914817885
          0.16331999004 0.29107478261 0.13496787846 0.29090219736 0.075480975211 0.17207486928
          -0.17708426714 -0.21378919482 -0.021019382402 -0.33319324255 -0.021021332592 -0.11743510514
          -0.020905345678 -0.33326131105 -0.21386831999 -0.02077308856 0.17178443074 0.30491325259
          0.14576037228 0.30474853516 0.085102386773 0.18355554342 -0.17241306603 -0.20991249382
          -0.013320785016 -0.33152741194 -0.0132869808 -0.11159992218 -0.013305829838 -0.33157110214
          -0.20993953943 -0.013108426705 0.18323878944 0.31976917386 0.15794621408 0.31963938475
          0.096250966191 0.19625662267 -0.16552208364 -0.2037409097 -0.0037957686 -0.32729905844
          -0.0037684044801 -0.1037306264 -0.00386135187 -0.32731959224 -0.20368915796 -0.0037007499486
          0.19603453577 0.33407402039 0.16966550052 0.33387601376 0.10704211146 0.208678931
          -0.1588422507 -0.19767177105 0.0053393365815 -0.32307714224 0.0054484019056 -0.096039198339
          0.0052316682413 -0.3230805099 -0.19761006534 0.0055576190352 0.2082362324 0.34662488103
          0.18016538024 0.34647592902 0.11670450121 0.21956050396 -0.15243753791 -0.1918002367
          0.013760969043 -0.31869506836 0.013869099319 -0.088895432651 0.013619520701 -0.31866157055
          -0.19168673456 0.01387931034 0.2192222178 0.35664108396 0.18825210631 0.35652604699
          0.12402815372 0.22798389196 -0.14805160463 -0.18785725534 0.020008016378 -0.3161354661
          0.020061573014 -0.083866380155 0.01980943419 -0.31615248322 -0.18783855438 0.01994686015
          0.22778004408 0.36200910807 0.19201260805 0.36193689704 0.12714530528 0.23211348057
          -0.14769345522 -0.18793711066 0.022060474381 -0.31748685241 0.022150497884 -0.082814954221
          0.021858979017 -0.31746891141 -0.18782320619 0.022066744044 0.23192682862 0.3634455502
          0.1917591989 0.36341100931 0.12623238564 0.23227925599 -0.15143662691 -0.19208273292
          0.020089935511 -0.32297688723 0.020145351067 -0.085869543254 0.019903188571 -0.3229047358
          -0.1919208169 0.020116275176 0.23215609789 0.36250790954 0.18913598359 0.36254510283
          0.12287779897 0.22997656465 -0.15764833987 -0.19874630868 0.015693133697 -0.33109921217
          0.0157469064 -0.091378211975 0.015622109175 -0.33095192909 -0.19847212732 0.015729261562
          0.23001842201 0.35914939642 0.18450120091 0.3593031764 0.11771273613 0.22560834885
          -0.16496147215 -0.20633688569 0.0097613316029 -0.33971473575 0.0097874272615 -0.09814760834
          0.0097248489037 -0.33952793479 -0.20601804554 0.0097739398479 0.22584627569 0.35395684838
          0.17859350145 0.35409829021 0.11154869944 0.21989969909 -0.17232958972 -0.21384273469
          0.0031086488161 -0.34781876206 0.0031237502117 -0.10522396863 0.0031222875696 -0.34764692187
          -0.21354159713 0.0032091774046 0.2201102674 0.34847944975 0.1728630513 0.3485147655
          0.10575585812 0.21432770789 -0.17849592865 -0.22001121938 -0.0027904002927 -0.35425654054
          -0.0028070525732 -0.1113742739 -0.002775431145 -0.35416570306 -0.21990159154 -0.0027750348672
          0.21436668932 0.34352490306 0.16772930324 0.34353491664 0.10058705509 0.20921638608
          -0.18386909366 -0.2253613919 -0.0080450475216 -0.35968956351 -0.0080523006618 -0.11673727632
          -0.0080318152905 -0.35968539119 -0.22537223995 -0.0080672297627 0.20924791694 0.15381215513
          0.054744027555 0.15385524929 0.016948606819 0.078302428126 -0.14465928078 -0.16770154238
          -0.044591832906 -0.24457198381 -0.0447897017 -0.10633222759 -0.044160671532 -0.24451188743
          -0.16754485667 -0.044067569077 0.078394390643 -0.47024944425 -0.47868517041 -0.50679695606
          -0.43435236812 -0.45636844635 -0.50677484274 -0.47884818912 -1.5697069168 -1.4219856262
          -1.5697947741 -1.4033784866 -1.2517267466 -1.4033756256 -1.3655275106 -1.1935479641
          -1.4554748535 -1.2858889103 -1.1307922602 -1.0945492983 -1.2748274803 -0.95022571087
          -0.91317379475 -1.09991467 -0.98690807819 -0.80046164989 -1.2756142616 -1.1006020308
          -1.1854686737 -1.0072129965 -1.2728397846 -1.0979744196 -0.98691576719 -0.80042713881
          -1.0946786404 -0.91330862045 -1.2730261087 -1.0981795788 -1.4553405046 -1.2857651711
          -1.1843448877 -1.0274193287 -1.1843764782 -0.96727061272 -1.0631608963 -0.71534025669
          -0.67736583948 -0.87047457695 -0.56021147966 -0.87101984024 -0.77437156439 -0.86898159981
          -0.56014937162 -0.67734861374 -0.86901366711 -1.0631266832 -0.92162460089 -0.76005136967
          -0.92167055607 -0.69819766283 -0.7973228693 -0.43797925115 -0.39927139878 -0.59844374657
          -0.27759024501 -0.59877622128 -0.49912548065 -0.59752231836 -0.27753040195 -0.39925289154
          -0.5975291729 -0.79736250639 -0.63097566366 -0.46503898501 -0.63100969791 -0.40159970522
          -0.50394260883 -0.13347394764 -0.094169482589 -0.29911765456 0.032159507275 -0.29918831587
          -0.19667880237 -0.29883167148 0.032179303467 -0.094099722803 -0.29878202081 -0.50398075581
          -0.33149561286 -0.16151691973 -0.33144909143 -0.096661254764 -0.2020393312 0.17885071039
          0.21861805022 0.0083387987688 0.34936907887 0.0085737537593 0.1137104407 0.0078609408811
          0.34940519929 0.21876426041 0.0079736085609 -0.20208452642 -0.045066837221 0.12868286669
          -0.044981453568 0.19480530918 0.086509548128 0.47740399837 0.51758223772 0.3023327589
          0.65247434378 0.30275690556 0.41037556529 0.30108943582 0.65251749754 0.51772230864
          0.30111783743 0.086620666087 0.20654544234 0.38393595815 0.20667098463 0.45136538148
          0.34032136202 0.74079358578 0.78147649765 0.56125873327 0.92035621405 0.56189793348
          0.67194497585 0.55933189392 0.92031675577 0.78149878979 0.55934011936 0.34039610624
          0.40480306745 0.5854831934 0.40489378572 0.65413957834 0.54067355394 0.94958555698
          0.99072235823 0.76610052586 1.1330951452 0.76695591211 0.87916761637 0.76365733147
          1.1330233812 0.99074721336 0.76375520229 0.54067903757 0.53424108028 0.71818226576
          0.53434860706 0.78801357746 0.67227518559 1.0890974998 1.1307814121 0.90201848745
          1.2761853933 0.90300899744 1.0172586441 0.89922732115 1.2761150599 1.1307873726
          0.89929103851 0.6723061204 0.58480024338 0.77194368839 0.58489722013 0.84303706884
          0.72519487143 1.1495183706 1.1918333769 0.95900130272 1.3400229216 0.96006518602
          1.0763946772 0.95602995157 1.3399726152 1.1919177771 0.95621740818 0.72514438629
          0.5524905324 0.74271327257 0.55267977715 0.81493574381 0.69517278671 1.1263769865
          1.1693673134 0.93281322718 1.3198751211 0.93388617039 1.0521113873 0.92988079786
          1.3199102879 1.1696009636 0.93005174398 0.69529950619 0.43845644593 0.63118761778
          0.43867048621 0.70434689522 0.58317631483 1.0195554495 1.0632276535 0.82374793291
          1.2153205872 0.82473266125 0.94444525242 0.8210042119 1.2153693438 1.0634895563
          0.82111990452 0.58337187767 0.24872484803 0.44322326779 0.2488553077 0.51710057259
          0.39509671926 0.8349134326 0.87931632996 0.63763189316 1.0322004557 0.63848251104
          0.75921374559 0.63524264097 1.0321729183 0.87937682867 0.63526111841 0.39522647858
          -0.0087594771758 0.1873434633 -0.0086664827541 0.2619381249 0.13924781978 0.58174091578
          0.62676757574 0.38334241509 0.78012776375 0.38409170508 0.5057131052 0.38134598732
          0.78007811308 0.62679189444 0.38138917089 0.13927556574 -0.32309642434 -0.12553179264
          -0.32307311893 -0.050271868706 -0.17345707119 0.27132117748 0.31701463461 0.071993254125
          0.47064194083 0.072548486292 0.19500955939 0.07047162205 0.47059482336 0.31702804565
          0.070571385324 -0.17357078195 -0.68018639088 -0.48121893406 -0.68017172813 -0.40535530448
          -0.52905488014 -0.082200154662 -0.035868793726 -0.28229209781 0.11787521094 -0.28193163872
          -0.15876336396 -0.28326940536 0.11789293587 -0.035816051066 -0.28322100639 -0.52906996012
          -1.0633636713 -0.86360067129 -1.0633298159 -0.78738033772 -0.91123366356 -0.4634975493
          -0.41671848297 -0.66389763355 -0.26317256689 -0.66367173195 -0.54009836912 -0.6644077301
          -0.26314282417 -0.41661152244 -0.66430878639 -0.91123837233 -1.459500432 -1.2593510151
          -1.4594792128 -1.1829445362 -1.3067730665 -0.85887420177 -0.81176948547 -1.0592237711
          -0.65854936838 -1.0591442585 -0.93541568518 -1.0594069958 -0.65855032206 -0.81170791388
          -1.0593848228 -1.3067480326 -1.8593813181 -1.6591837406 -1.8593899012 -1.582706809
          -1.7064568996 -1.2587052584 -1.2115082741 -1.45901227 -1.0584264994 -1.4589532614
          -1.3351916075 -1.4590839148 -1.0584089756 -1.2114329338 -1.4589873552 -1.7064974308
          -1.4357969761 -1.3152304888 -1.436087966 -1.2695841789 -1.3429547548 -1.0810779333
          -1.0521930456 -1.1967855692 -0.96528178453 -1.1972413063 -1.1250413656 -1.1958034039
          -0.96540081501 -1.0522838831 -1.1958442926 -1.3427973986 -0.74276387691 -0.73804211617
          -0.72050476074 -0.76321464777 -0.75097948313 -0.72068834305 -0.73824489117 -0.37591522932
          -0.4714410603 -0.56705832481 -0.62648808956 -0.471760571 -0.31797331572 -0.47187033296
          -0.62632501125 -0.47179591656 -0.56707394123 -0.37629774213 -0.47172912955 -0.31814950705
          -0.27077841759 -0.34131070971 -0.41211479902 -0.4560020566 -0.3415825665 -0.22710883617
          -0.34164753556 -0.45598646998 -0.34162005782 -0.41206747293 -0.27090981603 -0.34134700894
          -0.22719301283 -0.1597519964 -0.2093321681 -0.2581191361 -0.28775292635 -0.20853529871
          -0.12844504416 -0.20841385424 -0.28780153394 -0.20858073235 -0.2582218051 -0.15981832147
          -0.20945601165 -0.12847404182 -0.06821757555 -0.099246546626 -0.12901704013 -0.14639230072
          -0.097923919559 -0.047804631293 -0.097640298307 -0.14648479223 -0.097926385701 -0.12911780179
          -0.068109408021 -0.09926789254 -0.047725971788 -0.013502954505 -0.028758419678 -0.041528236121
          -0.047771718353 -0.02615894936 -0.0019780609291 -0.025688871741 -0.047955028713 -0.026146937162
          -0.041855033487 -0.013162469491 -0.028720173985 -0.0017512360355 0 0
          0 0 0 0 0 0
          0 0 0 0 0
        </DataArray>
        <DataArray type="Float32" Name="uz" format="ascii" RangeMin="-0.22281530499" RangeMax="0.22705543041">
          -0.0095061613247 0.002629867522 -0.0098405471072 -0.012455129065 -0.010186631233 -0.013032227755
          0.0032270832453 0.0071505280212 0.018410004675 0.020454546437 0.009988241829 0.02214760147
          0.0073815369979 0.021671662107 -0.020637776703 -0.022719554603 -0.025453971699 -0.02453603223
          0.0083407284692 0.024584854022 0.011587775312 0.018205160275 0.024007892236 -0.027021599934
          -0.027124347165 -0.020048892125 -0.001412732061 -0.01189491991 -0.0028685496654 -0.0012351156911
          -0.012865081429 -0.0022711600177 0.00011053877824 -0.012196613476 -0.013415001333 -0.019796509296
          -0.022410288453 -0.0008568072808 0.010778996162 0.0041518625803 -0.00054876477225 0.013022202998
          0.0056200423278 0.0028656693175 0.0035212887451 -0.0045466618612 -0.0045747142285 -0.010946113616
          -0.012283767574 0.01283330936 0.015848910436 -0.0078817121685 -0.00911714416 -0.017359653488
          -0.019975010306 -0.021907038987 -0.025027679279 0.0082315513864 0.010964248329 -0.010974404402
          -0.0034092487767 -0.0023832258303 -0.010709213093 -0.017052136362 -0.0010878469329 0.0083627551794
          0.0025913177524 0.0022057858296 -0.0043870857917 -0.0093022612855 0.009628594853 -0.0064146346413
          -0.01423613634 -0.018302800134 0.0054851733148 -0.009940800257 -0.0037266749423 -0.0034037828445
          -0.0091059468687 -0.014206985012 -0.0010887825629 0.0061930427328 0.0012672346784 0.0018748482689
          -0.0040181940421 -0.0074902260676 0.0065873544663 -0.0047016125172 -0.010995939374 -0.014597389847
          0.0029039562214 -0.0088183023036 -0.0041415686719 -0.0045286971144 -0.0074267168529 -0.011159108952
          -0.0011778300395 0.0036758924834 -0.00030360321398 0.0013887846144 -0.0037303932477 -0.0055957064033
          0.0031457187142 -0.0029014204629 -0.007491630502 -0.010634368286 2.3902091925e-05 -0.0077141034417
          -0.0048005767167 -0.0059762680903 -0.0057897651568 -0.0079085212201 -0.0016140247462 0.00062671315391
          -0.0022233158816 0.00043662128155 -0.0036599261221 -0.0038272759411 -0.00080738373799 -0.0013128650608
          -0.003959367983 -0.0064770597965 -0.0033229810651 -0.0062194936909 -0.0050061196089 -0.0066603282467
          -0.0040686489083 -0.0046978178434 -0.0020166358445 -0.0021653405856 -0.0037354333326 -0.00063697429141
          -0.003402909264 -0.0022229615133 -0.0041538267396 -0.00016931688879 -0.00092961150222 -0.0026880849618
          -0.0058582914062 -0.004209688399 -0.0046295104548 -0.0062248753384 -0.0024162724148 -0.001715971739
          -0.0024758689106 -0.0044110203162 -0.0046724481508 -0.0019183836412 -0.0030477738474 -0.0010699989507
          -0.006361277774 0.00013787357602 0.00096831755945 0.00024724251125 -0.007030423265 -0.0022219568491
          -0.0039680362679 -0.0051923883148 -0.0011065317085 0.00057104928419 -0.002933527343 -0.00602301443
          -0.0051282327622 -0.0031990204006 -0.0027354464401 -0.00043944470235 -0.0075855953619 -0.0001571213943
          0.0018766664434 0.0021302644163 -0.0072378641926 -0.00056915270397 -0.0030390550382 -0.0038000545464
          -0.00010472603026 0.0020648662467 -0.0030510651413 -0.0065447385423 -0.0048732161522 -0.0038767319638
          -0.002236751141 -8.7183660071e-05 -0.007518876344 -0.00056392099941 0.0020830971189 0.003075462766
          -0.0064455037937 0.00086537096649 -0.0018402887508 -0.0021988034714 0.00080383190652 0.0031016748399
          -0.0027315353509 -0.0060666468926 -0.0039648059756 -0.0039426456206 -0.001500823535 0.00026886048727
          -0.0064276056364 -0.00084004452219 0.0020511243492 0.0035759613384 -0.0049414620735 0.0023170374334
          -0.00045601464808 -0.00021013223159 0.0014795443276 0.003702550428 -0.0021990519017 -0.0051081515849