<VTKFile type="UnstructuredGrid" version="1.0" byte_order="LittleEndian" header_type="UInt64">
  <UnstructuredGrid>
    <Piece NumberOfPoints="791" NumberOfCells="973">
      <PointData>
        <DataArray type="Float32" Name="ux" format="ascii" RangeMin="-1.2473357916" RangeMax="1.2473933697">
          -0.0045713805594 -0.0029409013223 -0.0020527876914 2.3984435757e-05 0.0046289325692 0.0021082258318
          0.0029831936117 -0.0045851822942 -0.0045918216929 -0.0018745177658 2.1453161025e-05 0.0046188249253
          0.0046316180378 0.001918689115 -0.0048229219392 -0.0018377196975 0.0048950253986 0.0018970892997
          9.5493094705e-05 2.4811310141e-05 -5.1068869652e-05 -0.00011084347352 0.00013791488891 0.00035538780503
          3.149110853e-05 -0.00028674516943 2.2413525585e-05 -0.23127444088 -0.23063930869 -0.23135450482
          -0.11296975613 -0.11281581968 -0.1130040288 -0.2303069979 -0.11252705008 -0.23031044006
          -0.11192301661 -0.23038598895 -0.23008832335 -0.23017041385 -0.1133126691 -0.11308220029
          -0.11257002503 -0.23078979552 -0.11464644223 -0.23030102253 -0.11282619089 -0.23013985157
          -0.11284954846 -0.22975945473 -0.11181048304 -0.23072850704 -0.11451265961 -0.22991627455
          -0.11289747804 -0.22958765924 -0.11165738106 -0.23047165573 -0.11211897433 -0.36512437463
          -0.36503845453 -0.36518466473 -0.36491551995 -0.36483976245 -0.36500662565 -0.36499503255
          -0.36495965719 -0.36514633894 -0.36495995522 -0.36489909887 -0.36488193274 -0.36507794261
          -0.36483126879 -0.36468818784 -0.36500456929 -0.5037881732 -0.5040101409 -0.50384664536
          -0.50403726101 -0.50405859947 -0.50395643711 -0.5041384697 -0.50416868925 -0.50372576714
          -0.50404262543 -0.50400269032 -0.50441384315 -0.50366872549 -0.50397896767 -0.5042026639
          -0.5042154789 -0.63506704569 -0.63560581207 -0.63511776924 -0.63576805592 -0.6358371377
          -0.63555139303 -0.63592690229 -0.63598507643 -0.63501447439 -0.63574749231 -0.63573426008
          -0.63651573658 -0.63496148586 -0.63577222824 -0.63628715277 -0.63598966599 -0.7484010458
          -0.74920356274 -0.7484472394 -0.74948447943 -0.74960267544 -0.7491556406 -0.74969178438
          -0.74977707863 -0.74835026264 -0.74944341183 -0.74945425987 -0.75055378675 -0.74830263853
          -0.74954080582 -0.75031065941 -0.74975097179 -0.83468586206 -0.83570277691 -0.83472800255
          -0.83607810736 -0.83623379469 -0.83565735817 -0.83632433414 -0.83643084764 -0.83463793993
          -0.83601981401 -0.83604955673 -0.83740532398 -0.83459401131 -0.8361762166 -0.83715003729
          -0.83637911081 -0.88660061359 -0.88777399063 -0.88663995266 -0.88821852207 -0.88840162754
          -0.88773226738 -0.88849455118 -0.88861584663 -0.88655686378 -0.8881483078 -0.88819217682
          -0.88973468542 -0.88651561737 -0.88834810257 -0.88947027922 -0.88854497671 -0.89881044626
          -0.90007948875 -0.89884829521 -0.90056604147 -0.90076512098 -0.90004116297 -0.90086174011
          -0.90099102259 -0.89877218008 -0.90048909187 -0.90054178238 -0.9021974802 -0.89873236418
          -0.90071588755 -0.90192693472 -0.90090787411 -0.86808866262 -0.86939156055 -0.86812633276
          -0.86989271641 -0.87009638548 -0.86935675144 -0.87019783258 -0.87032830715 -0.86805713177
          -0.8698143959 -0.86987060308 -0.87156492472 -0.86801755428 -0.87005144358 -0.87129127979
          -0.87023973465 -0.79334545135 -0.79462271929 -0.79338419437 -0.795111835 -0.79530906677
          -0.79459136724 -0.79541659355 -0.79554152489 -0.79332190752 -0.79503726959 -0.79509186745
          -0.79675287008 -0.79328137636 -0.79526853561 -0.79647922516 -0.79545420408 -0.67555445433
          -0.67675155401 -0.67559540272 -0.67720448971 -0.6773852706 -0.67672365904 -0.67749994993
          -0.67761331797 -0.67554003 -0.67713838816 -0.67718672752 -0.67874860764 -0.67549741268
          -0.67734915018 -0.67847770452 -0.67753332853 -0.51757466793 -0.51864528656 -0.51761877537
          -0.51904141903 -0.51919722557 -0.51862090826 -0.51931983232 -0.51941657066 -0.51757031679
          -0.51898777485 -0.51902592182 -0.52043277025 -0.51752471924 -0.5191655755 -0.52016693354
          -0.51934909821 -0.32386979461 -0.32477855682 -0.32391786575 -0.32510215044 -0.32522639632
          -0.32475760579 -0.32535770535 -0.32543376088 -0.32387626171 -0.32506403327 -0.3250888288
          -0.32629793882 -0.32382699847 -0.32519933581 -0.32603898644 -0.32538282871 -0.10013241321
          -0.10085716099 -0.10018483549 -0.10109845549 -0.1011871621 -0.10083968937 -0.10132747889
          -0.10138044506 -0.10015011579 -0.10107771307 -0.10108736902 -0.1020720154 -0.10009676218
          -0.10116464645 -0.10182120651 -0.10134848207 0.14717744291 0.14664340019 0.14712056518
          0.14648728073 0.14643530548 0.14665739238 0.14628593624 0.14625677466 0.14714840055
          0.14649006724 0.14649613202 0.1457439959 0.14720593393 0.14645326138 0.14598621428
          0.14626905322 0.41136452556 0.4110108912 0.4113034606 0.41093531251 0.41091799736
          0.41102141142 0.41075992584 0.41075351834 0.41132438183 0.4109211266 0.41094192863
          0.41040977836 0.41138586402 0.41093140841 0.41064372659 0.41074720025 0.68608832359
          0.68588644266 0.68602377176 0.68587821722 0.68589031696 0.68589347601 0.68572425842
          0.68573713303 0.68603783846 0.68584942818 0.68588262796 0.68553590775 0.6861025691
          0.68589925766 0.68576270342 0.68571567535 0.96598798037 0.96589076519 0.96592092514
          0.96592926979 0.96596169472 0.96589404345 0.96578860283 0.96581619978 0.96592754126
          0.96589046717 0.96593135595 0.96571314335 0.96599465609 0.96596586704 0.96593511105
          0.96578454971 1.2473495007 1.2472897768 1.2472821474 1.2473444939 1.2473845482
          1.2472908497 1.2472077608 1.2472407818 1.2472844124 1.2473014593 1.2473450899
          1.2471731901 1.2473518848 1.2473860979 1.2473933697 1.2472063303 0.00081524817506
          -0.01117059961 0.00082742312225 -0.015291217715 -0.0074336919934 -0.034389812499 -0.036918085068
          -0.022437045351 -0.047250341624 -0.022654181346 -0.02965137735 -0.021529283375 -0.047016218305
          -0.03674486652 -0.021461525932 -0.0075868684798 -0.0046457406133 -0.0061655351892 -0.010682540946
          -0.00033546847408 -0.0028668008745 -0.010427984409 -0.0061744647101 0.11300977319 0.1128417328
          0.1130252406 0.23130640388 0.23065641522 0.23136667907 0.11256992072 0.23034210503
          0.11197900772 0.23035825789 0.11333899945 0.11308602989 0.11258517206 0.23040284216
          0.23008447886 0.23017625511 0.11466733366 0.23080191016 0.1128571853 0.23032295704
          0.11289270222 0.23017495871 0.11180847883 0.22974954545 0.11455339193 0.23076048493
          0.11295442283 0.22996415198 0.11171989888 0.22964158654 0.11212421954 0.23046791553
          0.36514887214 0.36504802108 0.36518928409 0.3649430871 0.36488041282 0.3650161922
          0.36498329043 0.36495804787 0.36515086889 0.36497449875 0.36492669582 0.36486405134
          0.36510258913 0.36487206817 0.36473506689 0.36499294639 0.50380635262 0.50401312113
          0.5038446188 0.50405848026 0.50409305096 0.50395941734 0.50411993265 0.5041603446
          0.50372374058 0.50405067205 0.50402402878 0.50438904762 0.50368696451 0.50401359797
          0.50424343348 0.50419706106 0.63507980108 0.63560324907 0.63511019945 0.63578397036
          0.63586640358 0.63554877043 0.6359025836 0.63597100973 0.63500678539 0.63575005531
          0.63575023413 0.63648509979 0.63497436047 0.63580167294 0.63632279634 0.6359654665
          0.74840939045 0.74919641018 0.74843502045 0.74949604273 0.74962764978 0.74914848804
          0.74966269732 0.74975836277 0.74833798409 0.74944144487 0.74946588278 0.75051832199
          0.74831110239 0.74956601858 0.75034213066 0.74972200394 0.83469086885 0.83569210768
          0.83471214771 0.8360863328 0.83625560999 0.83564668894 0.83629149199 0.8364084363
          0.83462208509 0.83601438999 0.83605778217 0.83736604452 0.83459913731 0.83619815111
          0.83717834949 0.83634638786 0.88660317659 0.887760818 0.88662159443 0.88822442293
          0.88842117786 0.88771903515 0.88845896721 0.88859087229 0.88653838634 0.88814043999
          0.88819807768 0.88969260454 0.88651835918 0.88836789131 0.88949638605 0.88850957155
          0.89881163836 0.90006482601 0.89882838726 0.90057057142 0.90078341961 0.90002650023
          0.90082448721 0.90096443892 0.89875215292 0.90047973394 0.90054637194 0.90215367079
          0.89873373508 0.90073442459 0.90195190907 0.90087074041 0.86808949709 0.86937642097
          0.86810588837 0.86989688873 0.87011444569 0.86934161186 0.87015992403 0.87030112743
          0.86803656816 0.86980456114 0.86987483501 0.87152040005 0.86801850796 0.8700697422
          0.87131607533 0.8702019453 0.79334682226 0.79460799694 0.79336416721 0.79511654377
          0.79532784224 0.7945766449 0.79537898302 0.7955147624 0.79330176115 0.79502791166
          0.79509669542 0.79670864344 0.79328286648 0.79528748989 0.79650467634 0.79541677237
          0.67555731535 0.67673820257 0.67557668686 0.67721068859 0.67740559578 0.6767103076
          0.67746353149 0.67758780718 0.67552125454 0.67713046074 0.67719298601 0.67870557308
          0.67550039291 0.67736965418 0.67850476503 0.67749708891 0.51757973433 0.51863408089
          0.51760220528 0.51904988289 0.51921987534 0.51860964298 0.51928550005 0.51939314604
          0.51755362749 0.5189819932 0.51903438568 0.52039170265 0.51752990484 0.51918840408
          0.52019637823 0.51931488514 0.32387781143 0.32477018237 0.32390406728 0.32511353493
          0.32525205612 0.32474923134 0.32532608509 0.32541313767 0.32386240363 0.32506111264
          0.32510027289 0.32625961304 0.3238350749 0.32522511482 0.32607144117 0.32535132766
          0.1001438871 0.100852184 0.10017439723 0.10111331195 0.10121636093 0.10083470494
          0.10129918903 0.10136317462 0.10013963282 0.10107821226 0.10110225528 0.10203696787
          0.10010828823 0.10119393468 0.10185722262 0.10132027417 -0.14716207981 -0.14664454758
          -0.14712719619 -0.14646852016 -0.14640215039 -0.14665853977 -0.14631044865 -0.14627024531
          -0.14715506136 -0.1464857161 -0.14647735655 -0.14577530324 -0.14719052613 -0.14642003179
          -0.14594621956 -0.14629352093 -0.41134497523 -0.41100791097 -0.4113059938 -0.41091233492
          -0.41088059545 -0.41101843119 -0.41078034043 -0.41076284647 -0.41132691503 -0.41091263294
          -0.41091895103 -0.41043701768 -0.41136628389 -0.41089397669 -0.41059949994 -0.41076758504
          -0.68606442213 -0.68587911129 -0.68602198362 -0.68585091829 -0.68584853411 -0.68588614464
          -0.68574035168 -0.68574213982 -0.68603605032 -0.68583655357 -0.68585526943 -0.68555879593
          -0.68607860804 -0.6858574152 -0.68571406603 -0.68573176861 -0.96595960855 -0.96587896347
          -0.96591472626 -0.96589750051 -0.96591544151 -0.96588230133 -0.96580028534 -0.96581685543
          -0.96592128277 -0.96587312222 -0.96589958668 -0.96573168039 -0.96596628428 -0.96591955423
          -0.96588200331 -0.96579623222 -1.2473167181 -1.2472735643 -1.2472714186 -1.247308135
          -1.2473338842 -1.2472746372 -1.2472149134 -1.2472369671 -1.2472736835 -1.247279644
          -1.2473088503 -1.2471872568 -1.2473189831 -1.2473353148 -1.2473357916 -1.2472134829
          -0.00075837672921 0.011207811534 -0.00079407636076 0.015348500572 0.0075049730949 0.034424323589
          0.036938138306 0.022460136563 0.047280158848 0.022693945095 0.029705533758 0.02154000476
          0.047064390033 0.036807682365 0.021534996107 0.0076005663723 0.0046864789911 0.0061787553132
          0.010711926036 0.00038576222141 0.0029212967493 0.010476673022 0.0062428480014 -0.00044137096847
          1.3536940969e-05 0.00047148493468 0.0011133735534 1.7295233192e-05 -0.001078801346 1.9053877622e-05
          0.0011129500344 2.1016796381e-05 0.00047345843632 -0.00042893350474 2.3165928724e-05 -0.001074433676
          -3.7376790715e-05 9.3443350124e-06 5.6949913414e-05 3.2172622468e-06 1.1067300875e-05 1.9657780285e-05
          1.228552992e-05 7.448858014e-06 1.33892745e-05 6.5234482463e-05 -3.5555240174e-05 1.5396975868e-05
          1.9717108444e-05 -7.3981660535e-05 4.8784349929e-06 8.4710132796e-05 0.00015666686522 6.3323368522e-06
          -0.00014359387569 7.2056391218e-06 0.00015800875553 8.108631846e-06 8.8710730779e-05 -7.0613066782e-05
          9.4789520517e-06 -0.00014223142352 -7.6596566942e-05 1.8362438823e-06 8.0820078438e-05 0.00012603250798
          2.7141550163e-06 -0.00012024361058 3.2698269479e-06 0.0001276491821 3.8053970002e-06 8.432699542e-05
          -7.5506039138e-05 4.6586606004e-06 -0.00012007274199 -8.3769009507e-05 1.3007539224e-07 8.4336832515e-05
          0.00013844357454 5.6573446727e-07 -0.0001370007958 8.3226706238e-07 0.00013956676412 1.091569743e-06
          8.6769061454e-05 -8.4009370767e-05 1.4834395188e-06 -0.00013729078637 0 0
          0 0 0 0 0 0
          0 0 0 0 0
        </DataArray>
        <DataArray type="Float32" Name="uy" format="ascii" RangeMin="-0.0023689181544" RangeMax="0.0028142929077">
          0.00075845420361 0.00015868376067 0.00037053940468 0.00098685279954 0.00076708331471 0.00038755705464
          0.00014824332902 -0.00019263823924 -0.00080825778423 -0.00083652522881 -0.00037095343578 -0.00081480445806
          -0.00018728582654 -0.00083761190763 0.0014973237412 0.0013913993025 0.0015167120146 0.001410636818
          0.00076629110845 -0.0009139815229 0.00081260321895 0.001019266434 0.0010543641401 -0.0004921106738
          0.0015029896749 -0.00055967940716 0.00032586118323 0.00072592898505 0.00011708363309 -0.00016209253226
          0.0010461142519 0.00017998204567 -0.0002487199381 0.00043029439985 0.00061768252635 0.0009891372174
          0.0014919759706 0.00026274455013 0.0008080060943 0.00017329076945 0.00047158027883 0.0014156869147
          0.00034896912985 0.00053598493105 0.00099538487848 0.00019453832647 0.00031029278762 -1.2178679754e-05
          -6.0470083554e-05 0.00015823717695 0.00027227564715 -0.00032493914478 -0.00051825074479 -0.00055204360979
          -0.00094806344714 0.00023422682716 0.0003263684921 -0.00046723661944 -0.00072917225771 0.00031806380139
          8.9938832389e-05 4.0061397158e-05 0.00019560942019 0.00039285418461 5.8791836636e-05 0.00014993244258
          5.2166455134e-05 8.1277052232e-05 8.6017884314e-05 3.3720421925e-05 1.5959110897e-05 -9.5492483524e-05
          -9.8894699477e-05 0.00015547158546 -9.8664204415e-05 -7.6585616625e-05 7.5506606663e-05 0.00024730432779
          -3.818438563e-05 -0.00020092556952 -0.00011798602645 -0.00040304422146 -4.1794890421e-05 -0.00030692960718
          -1.2343888557e-05 6.0914742789e-05 -6.9083485869e-05 8.4909064753e-05 0.00026807622635 4.626201553e-05
          0.00028746557655 -0.00042134386604 6.2069710111e-05 0.00042911450146 -0.00024155371648 -0.00071870052489
          -0.00027611409314 -0.00090884231031 -0.00012541509932 -0.00066088075982 -9.8385942692e-05 8.9088789537e-05
          -0.00015284270921 0.0002580647415 0.00061178242322 -4.2734500312e-05 0.00062319973949 -0.00071630242746
          5.3397110605e-05 0.00058853649534 -0.00041428292752 -0.0011632465757 -0.0004095940385 -0.0013389459345
          -0.00019561790396 -0.00096133473562 -0.00017002256936 0.00011610289948 -0.00022064291988 0.00040709669702
          0.00090701750014 -0.00011780970817 0.00091635325225 -0.00095109496033 4.8893976782e-05 0.00071946991375
          -0.00055111944675 -0.0015186601086 -0.00051442475524 -0.0016819984885 -0.00024888489861 -0.0012005195022
          -0.00022522453219 0.00013949593995 -0.00027217387105 0.00052919005975 0.001146236551 -0.00017656032287
          0.0011548312614 -0.0011194460094 4.8920610425e-05 0.00081847427646 -0.00064825027948 -0.0017755742883
          -0.000587822753 -0.0019284915179 -0.00028432384715 -0.0013718234841 -0.00026247059577 0.00015922734747
          -0.00030573483673 0.00062073889421 0.0013228132157 -0.00021740084048 0.0013327833731 -0.0012173050782
          5.360738578e-05 0.0008834929904 -0.00070330838207 -0.0019279196858 -0.00062791327946 -0.0020725596696
          -0.00030075246468 -0.0014711377444 -0.00028072853456 0.00017482526891 -0.00032033442403 0.00067981588654
          0.0014327727258 -0.00023927507573 0.0014462238178 -0.0012436121469 6.3188832428e-05 0.00091423763661
          -0.00071560894139 -0.0019742024597 -0.00063411239535 -0.0021126943175 -0.00029780750629 -0.0014973595971
          -0.00027960469015 0.00018641757197 -0.00031557228067 0.00070612638956 0.0014753828291 -0.0002418171789
          0.0014945098665 -0.0012004442979 7.7893360867e-05 0.00091229676036 -0.00068623182597 -0.0019176952774
          -0.00060719478643 -0.0020521110855 -0.00027575020795 -0.0014526265441 -0.00025936681777 0.00019454528228
          -0.00029171752976 0.00070122472243 0.0014533936046 -0.00022528397676 0.0014802906662 -0.0010931094876
          9.8004325991e-05 0.00088122853776 -0.00061807082966 -0.0017665935447 -0.00054930418264 -0.0018988139927
          -0.00023551385675 -0.0013423579512 -0.00022094587621 0.00020024308469 -0.00024970097002 0.0006685499684
          0.0013731385116 -0.0001906058169 0.0014097169042 -0.00093003740767 0.00012387688912 0.00082653790014
          -0.00051575951511 -0.0015338666271 -0.00046389646013 -0.0016654788051 -0.00017864606343 -0.0011751641287
          -0.00016589098959 0.00020504726854 -0.00019106766558 0.00061343057314 0.0012444943422 -0.00013932595903
          0.0012923654867 -0.00072252267273 0.00015598975006 0.0007556056953 -0.0003855068644 -0.0012368932366
          -0.00035560401739 -0.0013690913329 -0.00010722157458 -0.00096258567646 -9.6277915873e-05 0.00021101745369
          -0.00011788833217 0.00054300244665 0.0010806949576 -7.3512987001e-05 0.0011410745792 -0.00048433206393
          0.00019500424969 0.00067755754571 -0.00023483984114 -0.00089689862216 -0.00023002408852 -0.0010303950403
          -2.3705581043e-05 -0.00071869062958 -1.4572707187e-05 0.00022075176821 -3.2621974242e-05 0.00046609164565
          0.00089804100571 4.376051038e-06 0.00097165978514 -0.00023122325365 0.00024185456277 0.00060309725814
          -7.2326562076e-05 -0.00053826085059 -9.3481139629e-05 -0.00067320925882 6.9212612289e-05 -0.00045958324336
          7.6530028309e-05 0.0002374266478 6.2045677623e-05 0.00039305613609 0.00071552966256 9.16555e-05
          0.00080255843932 1.9684011932e-05 0.00029775794246 0.00054425740382 9.2920548923e-05 -0.00018760035164
          4.7341272875e-05 -0.00032353363349 0.00016879772011 -0.00020276514988 0.00017430212756 0.00026471563615
          0.00016339683498 0.00033554775291 0.00055433245143 0.0001856089948 0.00065431959229 0.00025020274916
          0.00036463001743 0.00051452126354 0.00025113447919 0.00012660527136 0.00018543828628 -9.2452255558e-06
          0.0002725146187 3.315554568e-05 0.00027619869797 0.00030728834099 0.00026886397973 0.00030666997191
          0.00043790251948 0.00028373411624 0.00054968945915 0.00044284082833 0.00044427270768 0.0005275378353
          0.00039379429654 0.00037660240196 0.00031482588383 0.00024307922286 0.00037835905096 0.00023045403941
          0.00038009413402 0.00036922251456 0.00037663910189 0.00031946247327 0.00038925194531 0.0003836126416
          0.00051149079809 0.00057874748018 0.00054040946998 0.00059988087742 0.00051132973749 0.00053234153893
          0.00042826501885 0.00040129057015 0.00048392976169 0.00036839890527 0.00048452315968 0.00045868326561
          0.00048330862774 0.00039104398456 0.00043868715875 0.00048575445544 0.00056577991927 0.001475348603
          0.00018809869653 -0.00048824751866 0.00075327907689 0.0019441593904 0.0006591794081 0.0021076484118
          0.00052147405222 0.0014448348666 0.00036964088213 -0.0002241742186 0.00046922671027 -0.00083952164277
          -0.0015301303938 0.00023858960776 -0.0010314559331 0.00074532674626 0.0028142929077 0.0018019489944
          0.0003033481189 -0.00062778557185 -0.0012007545447 -0.0023502353579 0.00095892167883 0.00010863993521
          -0.00033649549005 0.00065527064726 6.133554416e-05 -0.0002325293317 0.00055101822363 0.00038048328133
          0.0014162684092 0.0009298773366 0.00042902768473 0.0013772929087 0.00028927135281 0.00023754320864
          0.00078622426372 0.00013334270625 0.00096870295238 0.00052591663552 0.00025160532095 0.00015443045413
          -0.00010928621487 -4.3131170969e-05 0.00021431143978 0.00011770156561 -0.00054514565272 -0.00033505191095
          -0.00098673405591 -0.00057386839762 0.00026620534481 0.00019433333364 -0.00080471037654 -0.00052652636077
          0.00026264376356 4.9920556194e-05 -1.5471236111e-05 0.00016142596724 0.00034916203003 4.9567661335e-05
          0.00014439309598 2.7406096706e-05 8.7535860075e-05 6.1285689299e-05 1.8529988665e-05 -8.7138550953e-06
          -8.9312146883e-05 -0.00010458665929 0.00013054949522 -0.00014240517339 -0.00011865059787 4.8941725254e-05
          0.00020521889383 -5.8804100263e-05 -0.00023118160607 -0.00011336559692 -0.00039477532846 -5.2785078879e-05
          -0.00028666909202 -2.3311760742e-05 5.9540223447e-05 -8.0175261246e-05 0.00010511632718 0.00027625836083
          3.520676546e-05 0.00025714590447 -0.00045201423927 4.7094967158e-05 0.00039840163663 -0.00025052973069
          -0.00073741958477 -0.00025956495665 -0.00088858098025 -0.00012466983753 -0.00062850967515 -9.7623938927e-05
          9.9564829725e-05 -0.00015215435997 0.00029037214699 0.00063193473034 -4.209036706e-05 0.00060442648828
          -0.00073762919055 4.7920089855e-05 0.00056717096595 -0.00041369590326 -0.0011725043878 -0.00038321610191
          -0.0013088280102 -0.00018520803133 -0.00091897015227 -0.00015959088341 0.00013634648349 -0.0002103067236
          0.0004494007153 0.00093703344464 -0.00010749360081 0.00090703443857 -0.0009652437293 5.0746915804e-05
          0.00070528034121 -0.00054314534646 -0.0015206257813 -0.00048041270929 -0.0016442110064 -0.00023099583632
          -0.0011503662681 -0.0002073131036 0.00016731442884 -0.00025435865973 0.00057928211754 0.0011839218205
          -0.0001587686711 0.0011528035393 -0.0011286669178 5.5842534493e-05 0.00080921268091 -0.00063515274087
          -0.001772504882 -0.00054845650448 -0.0018853184301 -0.00026122402051 -0.0013161731185 -0.00023934734054
          0.00019234561478 -0.00028271158226 0.00067632907303 0.0013658860698 -0.00019439814787 0.0013357895659
          -0.0012238874333 6.3299848989e-05 0.00087687041378 -0.0006873899838 -0.0019221107941 -0.00058551417897
          -0.0020263234619 -0.00027475092793 -0.0014123240253 -0.00025470345281 0.00021092731913 -0.0002944090229
          0.00073857104871 0.0014789118432 -0.00021336904319 0.0014519701945 -0.0012498305878 7.3367446021e-05
          0.00090798048768 -0.00069915788481 -0.0019679346588 -0.00059098791098 -0.002065704437 -0.00027119903825
          -0.0014377029147 -0.00025297311367 0.00022320142307 -0.00028903776547 0.00076572725084 0.0015222803922
          -0.00021530015511 0.0015007168986 -0.0012085009366 8.6347346951e-05 0.00090420409106 -0.00067146256333
          -0.0019131765002 -0.00056557776406 -0.0020066020079 -0.00025075513986 -0.0013943726663 -0.00023434989271
          0.00022978353081 -0.00026679207804 0.000759426679 0.001498817117 -0.00020037427021 0.0014847525163
          -0.0011050691828 0.00010265967285 0.00086923642084 -0.00060706125805 -0.0017658947036 -0.00051129085477
          -0.0018568838714 -0.00021421615384 -0.0012876157416 -0.00019962830993 0.00023184491147 -0.000228466306
          0.00072324584471 0.0014149921481 -0.00016938510817 0.001410364639 -0.00094776233891 0.00012286061246
          0.00080878508743 -0.00051038712263 -0.0015388572356 -0.00043138489127 -0.0016290278872 -0.00016293031513
          -0.0011258453596 -0.00015015795361 0.00023112029885 -0.00017540664703 0.0006627094117 0.001280879369
          -0.00012367704767 0.0012873308733 -0.00074762513395 0.00014767842367 0.00073048035847 -0.00038739919546
          -0.0012491933303 -0.00033024180448 -0.0013397694565 -9.8722528492e-05 -0.00092035083799 -8.7764572527e-05
          0.0002299194166 -0.00010943442612 0.00058520433959 0.0011099625845 -6.5069194534e-05 0.0011287385132
          -0.00051814288599 0.00017805729294 0.00064372917404 -0.00024534150725 -0.00091784616234 -0.00021317281062
          -0.0010095658945 -2.3773796784e-05 -0.00068491237471 -1.462999262e-05 0.00023112537747 -3.272502363e-05
          0.00049984414363 0.00091882760171 4.2644601308e-06 0.00095068482915 -0.00027476690593 0.000215237058
          0.00055954157142 -9.2476468126e-05 -0.00056888844119 -8.6196545453e-05 -0.00066193088423 5.9531845181e-05
          -0.00043532779091 6.6856780904e-05 0.00023822010553 5.2340386901e-05 0.00041729316581 0.00072677712888
          8.1943282566e-05 0.00077191228047 -3.4308111935e-05 0.00026074255584 0.00049025798216 6.2390878156e-05
          -0.0002286327508 4.4309726945e-05 -0.00032255853876 0.00014876545174 -0.00018879250274 0.00015427435574
          0.00025518322946 0.00014334968 0.00034950868576 0.00055528752273 0.00016555657203 0.00061327638105
          0.0001853339636 0.00031677476363 0.00044964894187 0.0002097782417 7.4728755862e-05 0.00017162515724
          -1.9042261556e-05 0.00024167611264 3.6369641748e-05 0.00024536231649 0.00028696819209 0.00023801821226
          0.00030987785431 0.00042809473234 0.00025288501638 0.00049780792324 0.00036690558773 0.00038537278306
          0.00045160160516 0.00034140123171 0.00031367913471 0.00029000136419 0.00022227631416 0.00033649549005
          0.00022266915767 0.00033823118429 0.00033788819565 0.00033477350371 0.00031167536508 0.00036844506394
          0.00034174529719 0.00044856642489 0.0004917132901 0.00047041778453 0.00051284645451 0.00044784761849
          0.00045832621981 0.00039235953591 0.00036940840073 0.00043098081369 0.0003495371202 0.00043157435721
          0.00041626731399 0.00043035921408 0.00037218161742 0.00040680385428 0.00043280451791 0.00049176445464
          0.0013830200769 0.00010830799874 -0.00058053171961 0.00068549526623 0.0018658952322 0.00061957695289
          0.0020709161181 0.00047260575229 0.0014184705215 0.00031652339385 -0.00026783091016 0.00041533799958
          -0.00086534221191 -0.0015673780581 0.00019246076408 -0.0011133854277 0.000727296283 0.0027899341658
          0.0017980724806 0.00027348235017 -0.00065961229848 -0.0012058698339 -0.0023689181544 0.00024374038912
          0.00020240584854 0.00023719581077 0.00022170961893 0.00021472657681 0.00023055505881 0.00016669840261
          0.000122995727 0.00013190112077 0.00012144453649 0.0001225911692 0.00016101956135 0.00013052352006
          -2.2283427825e-05 -5.3584353736e-05 -2.5730467314e-05 5.7623830799e-05 5.34439896e-05 6.3568113546e-05
          0.00011447469296 0.00016070053971 0.00017269863747 0.00024627402308 0.00025097449543 0.00027870867052
          0.00016697481624 -5.1751343563e-05 -7.8783130448e-05 -5.4572494264e-05 1.3273543118e-05 4.9452760322e-06
          1.7661946913e-05 6.1519560404e-05 0.00010592275066 0.00011891228496 0.00017643794126 0.00017875814228
          0.00020370179845 0.00011010579328 -7.6665994129e-05 -0.00010168030713 -7.8417346231e-05 -1.3867717826e-05
          -2.3161035642e-05 -1.1110385458e-05 2.7208869142e-05 6.5037165768e-05 7.7674063505e-05 0.00013191386824
          0.00013354586554 0.00015737381182 6.7698550993e-05 -0.00011061946134 -0.00013918279728 -0.00011156905384
          -3.9511833165e-05 -4.8769423302e-05 -3.8130267058e-05 6.6113593675e-06 5.0996142818e-05 6.2298116973e-05
          0.00012506305939 0.00012569136743 0.00015418180556 5.2190520364e-05 0 0
          0 0 0 0 0 0
          0 0 0 0 0
        </DataArray>
        <DataArray type="Float32" Name="uz" format="ascii" RangeMin="-0.066097550094" RangeMax="0.23503082991">
          0.0041448296979 0.0044066905975 0.0039872894995 0.0042366841808 0.0041336766444 0.0039793299511
          0.0043906238861 0.0039863763377 0.0039686537348 0.0037843130995 0.0042825117707 0.0039951130748
          0.003978186287 0.003787313588 0.0037119132467 0.0038733633701 0.0037002209574 0.0038873651065
          0.0034456953872 0.0031067205127 0.0035060455557 0.0023585220333 0.0023933784105 0.002413128037
          0.0033701839857 0.0024379042443 0.0044753863476 0.14800460637 0.11424752325 0.14812919497
          0.13602651656 0.1080095917 0.13609944284 0.10147724301 0.097366064787 0.12239099294
          0.11451123655 0.047539960593 0.039461262524 0.080929368734 0.053665433079 0.047095865011
          0.080464892089 0.013647386804 0.027005678043 0.080893866718 0.08053150028 0.060257345438
          0.063750401139 0.080982580781 0.080406591296 0.01369452849 0.027002567425 0.039311408997
          0.046973712742 0.08084949851 0.080263420939 0.12243812531 0.11459748447 0.15424527228
          0.11765708029 0.15434236825 0.10376114398 0.12641319633 0.045035023242 0.036290254444
          0.081375077367 0.0083137014881 0.081342458725 0.058876618743 0.081403046846 0.0083435876295
          0.036153767258 0.081289291382 0.1264692843 0.15386024117 0.1176206395 0.15395665169
          0.1038658917 0.12629316747 0.045757416636 0.037109669298 0.081705056131 0.0094545101747
          0.081680893898 0.059452231973 0.081729158759 0.0094842482358 0.036987774074 0.081625200808
          0.12633766234 0.14743039012 0.11460008472 0.14751149714 0.1021335721 0.12245223671
          0.049454972148 0.041619885713 0.082042567432 0.016551781446 0.082020275295 0.061871655285
          0.082064397633 0.016579218209 0.04151436314 0.081975832582 0.12249056995 0.13571441174
          0.10891893506 0.1357819587 0.098747313023 0.1153312847 0.055762823671 0.04936645925