<VTKFile type="UnstructuredGrid" version="1.0" byte_order="LittleEndian" header_type="UInt64">
  <UnstructuredGrid>
    <Piece NumberOfPoints="791" NumberOfCells="973">
      <PointData>
        <DataArray type="Float32" Name="ux" format="ascii" RangeMin="-0.98775309324" RangeMax="1.2312248945">
          0.24001133442 0.20848418772 0.23313596845 0.22559411824 0.20243155956 0.22070173919
          0.20242673159 0.20626237988 0.18357719481 0.17130415142 0.18322135508 0.17676833272
          0.17748427391 0.16627460718 0.26196604967 0.25179889798 0.22316595912 0.2298592031
          0.18771335483 0.17513415217 0.20933412015 0.16843652725 0.19814607501 0.2431563884
          0.24271422625 0.2473025322 0.20203998685 0.47920459509 0.4484347403 0.43059664965
          0.43754035234 0.41171953082 0.3959389329 0.49011090398 0.44210660458 0.52328193188
          0.46967247128 0.45517879725 0.41965791583 0.43153005838 0.41669142246 0.38490071893
          0.39602172375 0.44786271453 0.41334620118 0.4618062377 0.42188376188 0.48840051889
          0.44090262055 0.40301218629 0.36529234052 0.47540029883 0.43402859569 0.51156318188
          0.45936948061 0.53398704529 0.47319942713 0.40222343802 0.36838063598 0.46113973856
          0.43170669675 0.41783252358 0.46895298362 0.50112086535 0.43184968829 0.405675143
          0.41594985127 0.42056208849 0.44203788042 0.46265110373 0.39434459805 0.44718852639
          0.48344618082 0.50707745552 0.39651834965 0.29215168953 0.2798705101 0.27540543675
          0.3000831604 0.30903884768 0.28783148527 0.27292490005 0.27839660645 0.2848444581
          0.28935420513 0.29502749443 0.26940435171 0.2887262404 0.29962286353 0.31094831228
          0.2655134201 0.023247778416 0.036977786571 0.047865845263 0.014065609314 0.0020932813641
          0.030246194452 0.062120374292 0.049325712025 0.034499902278 0.025704778731 0.0077748880722
          0.072892613709 0.0050166095607 -0.011882975698 -0.012048781849 0.066522069275 -0.18745490909
          -0.16254673898 -0.14696735144 -0.20350821316 -0.22947704792 -0.17150424421 -0.12309443951
          -0.14470329881 -0.15790812671 -0.17816510797 -0.20932358503 -0.11079416424 -0.20271976292
          -0.23953178525 -0.25005552173 -0.12344400585 -0.38926142454 -0.33762076497 -0.31517863274
          -0.40295609832 -0.45373409986 -0.33674868941 -0.26544991136 -0.29945680499 -0.31697115302
          -0.35550418496 -0.40247118473 -0.24525983632 -0.38675242662 -0.45018163323 -0.47672691941
          -0.26018023491 -0.48865959048 -0.40586465597 -0.37874314189 -0.50055289268 -0.57237511873
          -0.39882925153 -0.30174767971 -0.34813994169 -0.37242755294 -0.43030166626 -0.49517154694
          -0.27480277419 -0.46928045154 -0.55634945631 -0.59763336182 -0.29726442695 -0.43435624242
          -0.36446195841 -0.34544715285 -0.4411418736 -0.50019407272 -0.35361325741 -0.27517971396
          -0.31366106868 -0.33382049203 -0.38296103477 -0.4313698113 -0.24724559486 -0.41003835201
          -0.48051682115 -0.51680243015 -0.26895740628 -0.30900254846 -0.26984167099 -0.25275757909
          -0.31677910686 -0.35129919648 -0.27280211449 -0.22156776488 -0.24184860289 -0.26011815667
          -0.28639426827 -0.31514507532 -0.19946141541 -0.30687442422 -0.34701859951 -0.36487707496
          -0.2111363858 -0.20279435813 -0.1599496901 -0.14009042084 -0.21568848193 -0.25361829996
          -0.16200326383 -0.1001880765 -0.12786750495 -0.14739774168 -0.17518530786 -0.21584658325
          -0.080085612833 -0.20684850216 -0.25815942883 -0.27783128619 -0.092761904001 0.00018451664073
          0.039477750659 0.054587885737 -0.012091252021 -0.044997710735 0.034907039255 0.094980351627
          0.06983383745 0.047375060618 0.025770388544 -0.012088743038 0.11803509295 -0.0064117400907
          -0.046336751431 -0.064232736826 0.10246901959 0.21355576813 0.25883299112 0.27335643768
          0.20612284541 0.170989573 0.2542334795 0.30555683374 0.28845191002 0.25941255689
          0.24228613079 0.20513011515 0.3273986578 0.20772768557 0.17115043104 0.15738935769
          0.31891816854 0.31767523289 0.37741813064 0.38963341713 0.31253322959 0.26705732942
          0.3848542273 0.46240085363 0.42289161682 0.40613260865 0.36236283183 0.31472337246
          0.48106664419 0.32509309053 0.26423227787 0.24788822234 0.45331329107 0.35130062699
          0.43813502789 0.45930492878 0.33162674308 0.25903922319 0.44283777475 0.58275544643
          0.51021409035 0.4746144712 0.40901067853 0.32786226273 0.61106306314 0.33915194869
          0.24053701758 0.21349097788 0.56092566252 0.28182598948 0.41125208139 0.44992288947
          0.25291123986 0.14694839716 0.41616630554 0.62568575144 0.51956111193 0.46481132507
          0.37109354138 0.24279089272 0.66901570559 0.26176446676 0.11598037928 0.08053701371
          0.59801214933 0.13582578301 0.28091681004 0.31681105494 0.11148793995 -0.010523368604
          0.2904137671 0.50310438871 0.3951985538 0.33977124095 0.23819340765 0.10965425521
          0.55512773991 0.13281518221 -0.024949951097 -0.077436625957 0.47997185588 -0.11195581406
          0.031942274421 0.072948209941 -0.13672830164 -0.26152908802 0.036832846701 0.24023874104
          0.13882398605 0.084542132914 -0.01280156523 -0.13982227445 0.29204124212 -0.11113341153
          -0.2654235363 -0.32149082422 0.22787149251 -0.4366388917 -0.30035245419 -0.25677254796
          -0.46731701493 -0.58747643232 -0.30330193043 -0.11055620015 -0.20004086196 -0.26086744666
          -0.34660714865 -0.46910405159 -0.056272320449 -0.44357988238 -0.59075903893 -0.64237868786
          -0.11042847484 -0.78008306026 -0.63902515173 -0.59582352638 -0.80579179525 -0.93090432882
          -0.63169240952 -0.43904531002 -0.53331702948 -0.58524930477 -0.68204790354 -0.8030667901
          -0.38390520215 -0.77036708593 -0.92871922255 -0.98775309324 -0.44337955117 0.25560218096
          0.29262518883 0.27956068516 0.28101828694 0.25818306208 0.32569459081 0.34605869651
          0.32038447261 0.34888583422 0.30581137538 0.30948957801 0.33464759588 0.33831784129
          0.31407353282 0.2852191925 0.31179210544 0.23092783988 0.22051358223 0.23928013444
          0.22032144666 0.23878465593 0.2536303103 0.25757032633 -0.14371803403 -0.13746872544
          -0.13234043121 -0.42768982053 -0.44529610872 -0.4444577992 -0.14502987266 -0.43271124363
          -0.15388427675 -0.4172373116 -0.13959805667 -0.13592036068 -0.13233336806 -0.45421075821
          -0.48357906938 -0.46409764886 -0.14487482607 -0.46081143618 -0.1389900744 -0.44360202551
          -0.14261382818 -0.43389260769 -0.12609136105 -0.48502752185 -0.14596126974 -0.4383238256
          -0.15140990913 -0.42540204525 -0.15351825953 -0.41756612062 -0.12257123739 -0.46748024225
          -0.66107195616 -0.71063840389 -0.71907764673 -0.65692466497 -0.61575043201 -0.71247541904
          -0.78257060051 -0.74757188559 -0.72648221254 -0.6973131299 -0.65559667349 -0.80255579948
          -0.661904037 -0.61737841368 -0.60048311949 -0.77605479956 -0.8304810524 -0.87123662233
          -0.87719655037 -0.82538437843 -0.79626995325 -0.87115353346 -0.9388538003 -0.9073472023
          -0.88684892654 -0.85839343071 -0.8202984333 -0.95416772366 -0.82176703215 -0.78411853313
          -0.7809305191 -0.92896980047 -0.82893115282 -0.86536800861 -0.86785584688 -0.82864618301
          -0.80481231213 -0.8639972806 -0.92208790779 -0.89347326756 -0.86856740713 -0.85429751873
          -0.8234655261 -0.93777829409 -0.81790775061 -0.79496204853 -0.78884893656 -0.90905332565
          -0.57176470757 -0.61442816257 -0.61567479372 -0.57209271193 -0.53933942318 -0.61574447155
          -0.67976897955 -0.64625746012 -0.62668251991 -0.60204696655 -0.57146245241 -0.69805777073
          -0.57026672363 -0.53531616926 -0.52254796028 -0.67008411884 -0.11594665796 -0.16381029785
          -0.17716535926 -0.10465530306 -0.061621185392 -0.16485717893 -0.23947870731 -0.20134785771
          -0.18396411836 -0.14776389301 -0.10211891681 -0.25505489111 -0.11455254257 -0.059487704188
          -0.041228573769 -0.22949533165 0.33736214042 0.31674563885 0.31174749136 0.34342649579
          0.36119911075 0.31778940558 0.29285606742 0.30879428983 0.30736598372 0.32507044077
          0.34270727634 0.29331150651 0.33333823085 0.35718211532 0.36926323175 0.29922240973
          0.64822220802 0.6627175808 0.66561639309 0.64826411009 0.64065408707 0.65577942133
          0.68412876129 0.67542093992 0.65328544378 0.65526342392 0.64175468683 0.69816404581
          0.63148665428 0.62744414806 0.63233858347 0.68664884567 0.76153326035 0.83835917711
          0.85666906834 0.75411707163 0.69597995281 0.83405697346 0.93885546923 0.89447337389
          0.85191196203 0.81790602207 0.7524420023 0.97269117832 0.75549542904 0.68794900179
          0.66801434755 0.94035452604 0.62650960684 0.77099990845 0.80948239565 0.60383009911
          0.48749858141 0.76620572805 0.97557133436 0.87751156092 0.80784124136 0.72124922276
          0.59858161211 1.0374273062 0.6185311079 0.48186796904 0.43160951138 0.97247517109
          0.3373991847 0.51373529434 0.56910902262 0.30391013622 0.15259474516 0.51166963577
          0.76634597778 0.64588296413 0.56886607409 0.45825657248 0.30034267902 0.83795499802
          0.32774415612 0.1425204128 0.077179469168 0.76152122021 -0.046008862555 0.10342417657
          0.15228673816 -0.076590545475 -0.21124912798 0.10418023169 0.30596244335 0.2114675194
          0.14883835614 0.055625926703 -0.07760694623 0.36762067676 -0.04803673923 -0.2130625993
          -0.27925568819 0.31099572778 -0.42581835389 -0.34601292014 -0.31429496408 -0.44887128472
          -0.52435183525 -0.34898898005 -0.23025521636 -0.28599259257 -0.31906351447 -0.37338414788
          -0.45096105337 -0.19682535529 -0.42763274908 -0.52473372221 -0.56528306007 -0.22693999112
          -0.69401031733 -0.65208703279 -0.62628954649 -0.71239930391 -0.75923293829 -0.65758001804
          -0.59759306908 -0.6244609952 -0.63754969835 -0.67218726873 -0.71415114403 -0.58079171181
          -0.6972014904 -0.75724995136 -0.78539228439 -0.5891469121 -0.7482625246 -0.71732443571
          -0.69512760639 -0.76757919788 -0.80182945728 -0.72097355127 -0.66956615448 -0.69402396679
          -0.70259875059 -0.73638564348 -0.76976668835 -0.65625071526 -0.75315326452 -0.80539542437
          -0.82554334402 -0.66193133593 -0.58992409706 -0.54521840811 -0.51981604099 -0.60735040903
          -0.65604627132 -0.53670591116 -0.47514525056 -0.50828611851 -0.51070839167 -0.55872488022
          -0.60051208735 -0.46263065934 -0.57548749447 -0.64481633902 -0.67598348856 -0.47572612762
          -0.18165558577 -0.13534288108 -0.11595700681 -0.19784429669 -0.24210168421 -0.13256558776
          -0.066205635667 -0.10206245631 -0.10688161105 -0.14917419851 -0.19212304056 -0.055433809757
          -0.17027336359 -0.23098099232 -0.26329377294 -0.068750143051 0.42766740918 0.47105261683
          0.48657333851 0.41746810079 0.37656620145 0.47642672062 0.53267377615 0.50438982248
          0.49400559068 0.45865800977 0.42483013868 0.55020219088 0.44199794531 0.38827031851
          0.36337429285 0.53201270103 1.1152358055 1.1563647985 1.1731138229 1.1037064791
          1.0649285316 1.151742816 1.2139933109 1.1851100922 1.1683290005 1.1413037777
          1.0995600224 1.2312248945 1.1099976301 1.0630525351 1.0494498014 1.2145677805
          0.18812207878 0.14969076216 0.18361231685 0.14571122825 0.17191554606 0.092739015818
          0.074285827577 0.11757872254 0.055611550808 0.12386551499 0.11023094505 0.11531734467
          0.063388489187 0.093057401478 0.13484854996 0.15585890412 0.19140143692 0.16243314743
          0.16778077185 0.20944860578 0.21570551395 0.18672454357 0.21519714594 0.0067924573086
          -0.03590631485 0.0044906977564 0.119859308 0.10259110481 0.12067269534 0.19136928022
          0.26423484087 0.27577519417 0.37233731151 0.36116150022 0.40417674184 0.25799524784
          0.0094259381294 -0.043286863714 0.014696203172 0.17323836684 0.14312331378 0.16049334407
          0.26137211919 0.36356642842 0.37929221988 0.50964385271 0.50369220972 0.56281703711
          0.35118851066 0.040574975312 -0.022712064907 0.044875182211 0.21660619974 0.19030345976
          0.20620389283 0.32413974404 0.43235200644 0.45176231861 0.59711325169 0.58629280329
          0.65210843086 0.41380161047 0.057909227908 0.00073196238372 0.05471753329 0.20114159584
          0.18111909926 0.19571080804 0.29409453273 0.38270920515 0.400254637 0.5181106329
          0.50315701962 0.56426811218 0.3649854064 -0.0055884807371 -0.025107579306 0.010965445079
          0.10152506083 0.074660643935 0.080076873302 0.14069333673 0.20519079268 0.20695716143
          0.27581691742 0.27442568541 0.3070589304 0.18795353174 7.120318779e-10 -7.3866024408e-09
          7.3423844782e-10 -4.0475008761e-11 -2.1117156634e-10 -4.9888593256e-11 7.1195736806e-11 -1.6410353978e-12
          -5.5223393133e-13 0 0 0 9.3940827339e-13
        </DataArray>
        <DataArray type="Float32" Name="uy" format="ascii" RangeMin="-1.4468027353" RangeMax="1.07459867">
          -0.41521427035 -0.35826584697 -0.33688029647 -0.37053340673 -0.32053115964 -0.27764376998
          -0.29169508815 -0.41400155425 -0.36797806621 -0.38346615434 -0.3651176095 -0.30162036419
          -0.31871089339 -0.32721182704 -0.36943045259 -0.38435798883 -0.30085408688 -0.33318796754
          -0.30784073472 -0.33690756559 -0.25667712092 -0.31107679009 -0.2626490891 -0.2461309135
          -0.34388792515 -0.29715001583 -0.37264296412 0.50729227066 0.46864771843 0.49997609854
          0.28441363573 0.24651767313 0.28265708685 0.45656833053 0.23166763783 0.48273423314
          0.25554382801 0.40342262387 0.39560258389 0.43401560187 0.18423956633 0.17372204363
          0.21050596237 0.37667143345 0.15931355953 0.43524155021 0.21055626869 0.41289925575
          0.19197440147 0.42930933833 0.20582814515 0.37320500612 0.16140523553 0.3875926733
          0.17736080289 0.43321111798 0.21125173569 0.47030842304 0.24899038672 0.55625206232
          0.52428531647 0.55224519968 0.51338368654 0.52968561649 0.47592777014 0.47617796063
          0.50017404556 0.45726791024 0.49666979909 0.47843387723 0.50018316507 0.44706949592
          0.45733582973 0.48863005638 0.52886253595 0.48839139938 0.48035556078 0.49166250229
          0.46575564146 0.47456368804 0.46140447259 0.46690374613 0.47637850046 0.45566010475
          0.46937635541 0.45443671942 0.48016890883 0.44763964415 0.44296261668 0.45211741328
          0.48650559783 0.32266709208 0.3468926847 0.32783988118 0.3512044847 0.33188188076
          0.39046636224 0.39653128386 0.37254077196 0.41044431925 0.36790782213 0.3754799366
          0.37168627977 0.40458202362 0.38322269917 0.35429233313 0.3470132947 0.11628974974
          0.15266105533 0.12232433259 0.16333276033 0.13727970421 0.21800577641 0.22307136655
          0.18377891183 0.25228273869 0.18352304399 0.20539273322 0.17936366796 0.25200021267
          0.2230656743 0.17868252099 0.14286355674 -0.25909787416 -0.19709321856 -0.25220912695
          -0.17988416553 -0.21802076697 -0.086620569229 -0.076119989157 -0.13830447197 -0.035218164325
          -0.1417439729 -0.1076476872 -0.137922436 -0.032146796584 -0.07105153054 -0.14653399587
          -0.20622052252 -0.62769067287 -0.54557949305 -0.62275332212 -0.52059817314 -0.56725543737
          -0.40292719007 -0.38510847092 -0.46861344576 -0.33063355088 -0.47465586662 -0.42822498083
          -0.46708601713 -0.32447680831 -0.37547016144 -0.47152212262 -0.55546492338 -0.76943093538
          -0.70070624352 -0.76696866751 -0.67766565084 -0.71755599976 -0.57377749681 -0.55577349663
          -0.63366782665 -0.5130354166 -0.63594841957 -0.59814947844 -0.62400096655 -0.51125025749
          -0.55261927843 -0.63360923529 -0.70946115255 -0.71596282721 -0.67418128252 -0.71712917089
          -0.65549778938 -0.67686033249 -0.59358549118 -0.57977342606 -0.63184797764 -0.55516183376
          -0.63190954924 -0.60241174698 -0.62660616636 -0.55058681965 -0.57819181681 -0.62163066864
          -0.68208104372 -0.59110736847 -0.53784781694 -0.58314454556 -0.52461749315 -0.55882889032
          -0.43774905801 -0.42157667875 -0.48396497965 -0.38789841533 -0.49284282327 -0.45943626761
          -0.47647032142 -0.38684466481 -0.42644095421 -0.49297243357 -0.53874319792 -0.37544718385
          -0.32619649172 -0.37114360929 -0.31342047453 -0.34033638239 -0.23576390743 -0.21883679926
          -0.27773556113 -0.19014073908 -0.28272855282 -0.25434601307 -0.27056074142 -0.19438306987
          -0.22743622959 -0.27979725599 -0.32867673039 -0.048313248903 -0.0023106138688 -0.047251913697
          0.0049268272705 -0.016240080819 0.064558409154 0.078963585198 0.03418289125 0.10035339743
          0.03189310059 0.048405576497 0.04399709031 0.098121963441 0.067037165165 0.026636231691
          -0.0090412935242 0.33382701874 0.38595566154 0.33259683847 0.4022783339 0.36905783415
          0.48691728711 0.50200849771 0.43799909949 0.5422565937 0.4344792366 0.46151819825
          0.43631276488 0.53953051567 0.48755693436 0.42449352145 0.37293982506 0.58248597383
          0.67347925901 0.57812893391 0.70984327793 0.64870250225 0.86449086666 0.88208413124
          0.76216572523 0.96487557888 0.7692463398 0.82629692554 0.75609362125 0.96033513546
          0.87864685059 0.75919991732 0.63818782568 0.52295583487 0.64891207218 0.5196262598
          0.69976383448 0.61582255363 0.92278420925 0.95391005278 0.77976620197 1.07459867
          0.78239524364 0.86295986176 0.77121722698 1.0673995018 0.94144272804 0.76842367649
          0.60975807905 0.19885247946 0.34386309981 0.19689030945 0.39807978272 0.30315175653
          0.65087038279 0.68160384893 0.49254092574 0.80876100063 0.49030354619 0.58630800247
          0.48570674658 0.80710470676 0.67854052782 0.4820881784 0.29916796088 -0.26265618205
          -0.12240217626 -0.26896178722 -0.063482634723 -0.15295165777 0.17296272516 0.20176297426
          0.022345349193 0.32034769654 0.025356730446 0.11561633646 0.015392173082 0.32081049681
          0.20561277866 0.023284185678 -0.16481202841 -0.82714700699 -0.68956035376 -0.82802706957
          -0.63817417622 -0.72468185425 -0.41516667604 -0.38374197483 -0.55415737629 -0.27277845144
          -0.55342024565 -0.46691554785 -0.55878770351 -0.27292472124 -0.38113677502 -0.5529345274
          -0.72358739376 -1.4468027353 -1.2999087572 -1.4434940815 -1.2510373592 -1.3401913643
          -1.0082604885 -0.97235560417 -1.1516430378 -0.86143857241 -1.1585085392 -1.0648025274
          -1.150036335 -0.86024802923 -0.97434014082 -1.1615872383 -1.3301533461 -0.25847756863
          -0.19303147495 -0.26429271698 -0.16399267316 -0.2026501298 -0.077837146819 -0.067696452141
          -0.13259904087 -0.028447438031 -0.13242305815 -0.09393556416 -0.13834029436 -0.025475248694
          -0.059488955885 -0.12557628751 -0.21374738216 -0.21225227416 -0.21208450198 -0.16975128651
          -0.25225108862 -0.21977497637 -0.1596609652 -0.18641221523 -0.060088910162 -0.077366195619
          -0.065580390394 -0.036406520754 -0.024593101814 -0.043846122921 -0.073978304863 -0.010840927251
          -0.065914414823 -0.015964098275 -0.096550554037 -0.10565331578 -0.091971956193 0.015302781016
          0.019649012014 -0.0083349663764 -0.10238989443 0.038053795695 -0.086214073002 -0.0018996855943
          -0.087573647499 0.012322435156 -0.097486309707 -0.011232183315 -0.094657763839 0.03831877932
          -0.083896689117 0.029084201902 -0.075004763901 0.010473835282 -0.07797858119 -0.034168604761
          0.016679724678 0.056426975876 0.011117307469 0.078568130732 0.056145109236 0.15386819839
          0.1662864089 0.10155469179 0.20568522811 0.10326199979 0.13393056393 0.10200238228
          0.20082578063 0.16701805592 0.11083921045 0.042515002191 0.20342235267 0.2318380326
          0.19246320426 0.25228083134 0.23452864587 0.30980691314 0.32442811131 0.26722177863
          0.35991382599 0.26993921399 0.29195326567 0.26722797751 0.34960746765 0.31135222316
          0.27190643549 0.21304997802 0.28713396192 0.30950841308 0.27484059334 0.33051744103
          0.31346845627 0.38201767206 0.39026963711 0.33947730064 0.42403942347 0.34568145871
          0.36663591862 0.32702493668 0.41488495469 0.3817628324 0.34512034059 0.28611168265
          0.16830065846 0.2019250989 0.15766486526 0.21934278309 0.19681796432 0.29533362389
          0.30876162648 0.24865180254 0.3405098021 0.24717631936 0.27325135469 0.24340583384
          0.33384391665 0.29433679581 0.24527774751 0.18469540775 -0.044727388769 -0.0019773861859
          -0.048439063132 0.022391166538 -0.0039791488089 0.099753968418 0.11320519447 0.044186484069
          0.15646003187 0.047908168286 0.082657948136 0.041801214218 0.15710173547 0.11580775678
          0.05772010237 -0.016694428399 -0.14268502593 -0.12514415383 -0.1417697072 -0.11454798281
          -0.12543521821 -0.092429317534 -0.097792454064 -0.11606436223 -0.077258892357 -0.10847920179
          -0.090998373926 -0.11322909594 -0.066284067929 -0.072182394564 -0.094532042742 -0.12668356299
          -0.15674725175 -0.16541844606 -0.15006873012 -0.17153155804 -0.16588532925 -0.1983384043
          -0.21321365237 -0.18318717182 -0.21996796131 -0.18041211367 -0.18659555912 -0.18474809825
          -0.2059995681 -0.18625383079 -0.1747097373 -0.1589333117 -0.12186579406 -0.18804848194
          -0.11724467576 -0.21523453295 -0.17209272087 -0.32734027505 -0.34966591001 -0.25992777944
          -0.39992216229 -0.25687789917 -0.29483699799 -0.25653210282 -0.39014846087 -0.32969474792
          -0.24940632284 -0.16689659655 0.023013554513 -0.11070205271 0.035779476166 -0.1754386425
          -0.092302449048 -0.3989790082 -0.43617257476 -0.25267010927 -0.54776763916 -0.25903651118
          -0.34603965282 -0.24583868682 -0.53761601448 -0.42428043485 -0.2601377368 -0.064685046673
          0.19891540706 0.02518078126 0.20215214789 -0.047584418207 0.063137181103 -0.34019371867
          -0.38353121281 -0.15556123853 -0.52605366707 -0.1586150527 -0.2711661756 -0.1542186141
          -0.52352905273 -0.38060605526 -0.15988767147 0.067906238139 0.31896555424 0.15696552396
          0.31059855223 0.10277473927 0.20439527929 -0.15891937912 -0.19426631927 -0.0026716995053
          -0.31237074733 0.00099174876232 -0.097805760801 -0.0064364480786 -0.31668350101 -0.19910778105
          0.0047304104082 0.18818607926 0.29635483027 0.20840731263 0.28997784853 0.17825818062
          0.23544412851 0.0300113298 0.0075841364451 0.12183837593 -0.062860362232 0.12238109112
          0.064005099237 0.11699276417 -0.066350601614 -0.0003535465803 0.11988539994 0.22118917108
          0.24953080714 0.19144165516 0.23803424835 0.17461751401 0.21130764484 0.091593891382
          0.08280915767 0.14087109268 0.045203406364 0.14068442583 0.10542856902 0.13880307972
          0.035018347204 0.070201769471 0.13945405185 0.19625003636 0.22029112279 0.1734392792
          0.21121141315 0.15846082568 0.18641501665 0.093853674829 0.088353715837 0.13207913935
          0.057035643607 0.13101665676 0.10274977237 0.13136026263 0.046569697559 0.075977295637
          0.13032267988 0.17866194248 0.24883165956 0.19018001854 0.24091331661 0.17086799443
          0.20692229271 0.092935346067 0.090516671538 0.13982252777 0.053990729153 0.13909237087
          0.10597516596 0.13813716173 0.037348382175 0.069044440985 0.13582232594 0.19645930827
          0.19706732035 0.14308927953 0.19086036086 0.1208435446 0.15460549295 0.0463607274
          0.043988741934 0.094952523708 0.0060298321769 0.093923427165 0.058471933007 0.093798741698
          -0.0081549780443 0.017203211784 0.079929962754 0.1492099762 0.0017777986359 -0.050775352865
          -0.002188202925 -0.068541817367 -0.035591062158 -0.14183858037 -0.14865593612 -0.099272660911
          -0.18159510195 -0.096983410418 -0.12763381004 -0.09976028651 -0.18417431414 -0.15994569659
          -0.099633023143 -0.041555080563 -0.21841408312 -0.26116830111 -0.21678741276 -0.2816491425
          -0.25510543585 -0.34726813436 -0.3545871377 -0.30286630988 -0.39249619842 -0.30456453562
          -0.33255276084 -0.30021005869 -0.39287739992 -0.36016020179 -0.30716437101 -0.25086283684
          -0.28219383955 -0.25681805611 -0.27806377411 -0.24516667426 -0.26352891326 -0.20982892811
          -0.21395887434 -0.23766513169 -0.18412739038 -0.23237554729 -0.2109425962 -0.24342526495
          -0.17311267555 -0.18939258158 -0.2238355428 -0.26070919633 -0.25701993704 -0.25316634774
          -0.21094067395 -0.30606344342 -0.26597493887 -0.20006705821 -0.22852894664 -0.31136786938
          -0.44507819414 -0.57358831167 -0.6500210762 -0.43808212876 -0.2274505496 -0.43501079082
          -0.64128553867 -0.43073970079 -0.55209797621 -0.29977294803 -0.42246699333 -0.22596202791
          -0.17511831224 -0.34866759181 -0.5258628726 -0.63568538427 -0.35072767735 -0.069194152951
          -0.34996560216 -0.63518178463 -0.35199889541 -0.52672803402 -0.17869122326 -0.35283607244
          -0.069832183421 -0.1281362325 -0.32997870445 -0.52487713099 -0.64722889662 -0.32469922304
          -0.0028276802041 -0.32495832443 -0.64637672901 -0.32140943408 -0.52230989933 -0.12406850606
          -0.32169395685 -0.0012865507742 -0.12560206652 -0.28241539001 -0.44303041697 -0.54643815756
          -0.28271871805 -0.025533033535 -0.28356841207 -0.5415841341 -0.28073853254 -0.43990632892
          -0.11818098277 -0.27543976903 -0.024174101651 -0.061339911073 -0.16166388988 -0.26247063279
          -0.31208866835 -0.15734647214 0.0042337747291 -0.15621246397 -0.30363455415 -0.15805517137
          -0.24505645037 -0.068315654993 -0.16103570163 -0.0029386128299 -1.2044408526e-10 5.2438952486e-11
          1.3640620578e-10 -7.1476248531e-11 4.4741450128e-11 7.9786191542e-11 6.0621377709e-12 3.0241798649e-12
          -6.9683608927e-13 0 0 0 -2.3266555783e-12
        </DataArray>
        <DataArray type="Float32" Name="uz" format="ascii" RangeMin="-0.49413996935" RangeMax="0.5813497901">
          0.18367195129 0.14394535124 0.19694884121 0.18594475091 0.1839864403 0.2016415745
          0.15615440905 0.13604696095 0.073922388256 0.1073378548 0.13776446879 0.095500916243
          0.14556850493 0.11203592271 0.25131285191 0.22175450623 0.24545229971 0.21939603984
          0.11135915667 0.096481800079 0.12771329284 0.067038290203 0.085540063679 0.26616561413
          0.24234385788 0.26558285952 0.16172015667 0.11319765449 0.086213156581 0.073069863021
          0.088056586683 0.047468259931 0.011600877158 0.12226566672 0.12329219282 0.1471054405
          0.16515472531 0.086097911 0.035900291055 0.061548039317 0.078293047845 -0.013716416433
          0.0139733674 0.07450479269 0.072944119573 0.097158789635 0.081713147461 0.12473340333
          0.14890058339 0.022396530956 -0.059960968792 0.12266861647 0.16737698019 0.1583519876
          0.22566449642 0.16591711342 0.22099293768 0.03920513019 -0.04612030834 0.14031648636
          0.11706833541 0.14077326655 0.10519912094 0.11964841187 0.055220402777 0.041168607771
          0.082267917693 0.030299846083 0.086375616491 0.069112285972 0.074127882719 0.033348623663
          0.053179096431 0.086517095566 0.11703916639 0.16054570675 0.12357278168 0.1884406805
          0.076231613755 0.093907900155 0.0053189750761 0.012709380127 0.076734282076 -0.048952557147
          0.058055691421 0.0033168850932 0.093224905431 -0.072736732662 -0.050753854215 0.012048004195
          0.16232289374 0.11980932206 0.09694518894 0.1712051332 0.021286820993 0.030734369531
          -0.037892453372 0.0059675090015 0.063032828271 -0.093939065933 0.016348557547 -0.062480274588
          0.10731314868 -0.14664585888 -0.13655771315 -0.069839574397 0.16817814112 0.04727081582
          0.057856746018 0.13457816839 -0.040959969163 -0.066301740706 -0.046960968524 0.036637574434
          0.055009845644 -0.073676630855 -0.01617477648 -0.10648653656 0.12583944201 -0.16357447207
          -0.19542856514 -0.15949633718 0.16313044727 -0.021170049906 0.021666361019 0.086513847113
          -0.084213465452 -0.1356048286 -0.038084343076 0.073796465993 0.049602556974 -0.039176829159
          -0.03526089713 -0.12155891955 0.14477977157 -0.15146453679 -0.21943746507 -0.209945485
          0.14816914499 -0.071626521647 -0.020243898034 0.0056441649795 -0.091983176768 -0.14390696585
          -0.026459611952 0.065406955779 0.020023668185 -0.0044436710887 -0.045559648424 -0.1004633233
          0.090442895889 -0.090823791921 -0.15764354169 -0.17664153874 0.065569803119 -0.080027095973
          -0.036007337272 -0.05039267242 -0.056596066803 -0.086224853992 -0.0039780326188 0.035786114633
          0.00024098758877 0.021602153778 -0.026141073555 -0.038601960987 0.026174256578 -0.010149706155
          -0.044212795794 -0.072604298592 -0.0087697925046 -0.065241202712 -0.052077189088 -0.089055679739
          -0.023959999904 -0.024660535157 0.0017344000516 -0.013743500225 -0.03316405043 0.019876046106
          -0.019508583471 0.0078552216291 -0.054337844253 0.037651158869 0.036280333996 0.012892753817
          -0.083770863712 -0.08417288214 -0.087250031531 -0.13962306082 -0.02526560612 -0.015034136362
          -0.0074053485878 -0.063847027719 -0.08233807236 0.017864482477 -0.033464770764 0.025778379291
          -0.13617256284 0.074312098324 0.086930111051 0.049993991852 -0.16402301192 -0.12405917048
          -0.13723580539 -0.21788497269 -0.035528194159 -0.011647510342 -0.034615736455 -0.11480133981
          -0.13866706192 -0.00028265514993 -0.064667761326 0.02890843153 -0.21088668704 0.088486999273
          0.12252538651 0.083096154034 -0.25034874678 -0.11048228294 -0.16318669915 -0.2374548316
          -0.036667175591 0.021212594584 -0.084059670568 -0.20139627159 -0.19189812243 -0.068820767105