<VTKFile type="UnstructuredGrid" version="1.0" byte_order="LittleEndian" header_type="UInt64">
  <UnstructuredGrid>
    <Piece NumberOfPoints="791" NumberOfCells="973">
      <PointData>
        <DataArray type="Float32" Name="ux" format="ascii" RangeMin="-0.910328269" RangeMax="0.29959997535">
          0.15847097337 0.17735137045 0.15953855217 0.1552579999 0.15846014023 0.16000935435
          0.17728717625 0.17680996656 0.20230337977 0.1925548166 0.17763644457 0.2015915215
          0.17663143575 0.19244332612 0.14060197771 0.14441165328 0.1411832571 0.14461669326
          0.19359537959 0.20183584094 0.19325110316 0.21128600836 0.21048457921 0.14206387103
          0.14122356474 0.14093488455 0.16565936804 0.18497364223 0.19820016623 0.20222979784
          0.18335099518 0.19683583081 0.20115892589 0.1824940294 0.18053130805 0.17119649053
          0.16890531778 0.19834500551 0.21735566854 0.20825473964 0.19688756764 0.21660631895
          0.2071878016 0.20269696414 0.20140790939 0.19393657148 0.19234795868 0.18236513436
          0.18028748035 0.2226819247 0.22212669253 0.18472222984 0.18268497288 0.17068311572
          0.16804115474 0.16569595039 0.16297788918 0.21670626104 0.21605721116 0.18002954125
          0.1926921308 0.19655559957 0.17761750519 0.16681073606 0.19281247258 0.21111629903
          0.20236968994 0.19696389139 0.18859957159 0.17744782567 0.21625080705 0.17964278162
          0.16616311669 0.16146193445 0.21048592031 0.16759224236 0.17966219783 0.18336741626
          0.16528214514 0.15496398509 0.17976617813 0.19725714624 0.18889398873 0.183734864
          0.17575083673 0.16510130465 0.20216152072 0.16719244421 0.15431758761 0.14982366562
          0.19665195048 0.14818635583 0.15964348614 0.1631667912 0.14598323405 0.13619121909
          0.15974089503 0.17629303038 0.1683909148 0.16350907087 0.15591830015 0.14583052695
          0.18095821142 0.14784672856 0.13561631739 0.13134090602 0.17576359212 0.12261269987
          0.13351537287 0.13688759506 0.12051149458 0.11118895561 0.13358059525 0.14927765727
          0.1418081075 0.13713625073 0.1299726069 0.12037850171 0.15372695029 0.12229859084
          0.11070437729 0.10661789775 0.14884589612 0.091206647456 0.10157480091 0.10479130596
          0.089253008366 0.08038430661 0.10162919015 0.11649230868 0.10944136232 0.10497973859
          0.098213218153 0.089143000543 0.12077556551 0.090967766941 0.080009125173 0.076106153429
          0.11617226154 0.053982000798 0.063996315002 0.06707970053 0.05214465037 0.043612781912
          0.064012408257 0.078254066408 0.071546517313 0.067182898521 0.060749549419 0.052058067173
          0.082439124584 0.053798161447 0.043341010809 0.039567559958 0.078059241176 0.010484548286
          0.020197125152 0.023147249594 0.0087766703218 0.00053209596081 0.02023909986 0.033917620778
          0.027494754642 0.023258561268 0.017100349069 0.0087375277653 0.03798687458 0.010388153605
          0.00035571842454 -0.0033023685683 0.033767040819 -0.039965644479 -0.030561288819 -0.027729563415
          -0.041584316641 -0.049566563219 -0.030549034476 -0.017340302467 -0.023519741371 -0.027666063979
          -0.033551882952 -0.041617814451 -0.013359180652 -0.040049534291 -0.049703743309 -0.053235128522
          -0.017440302297 -0.097916208208 -0.088702082634 -0.085916414857 -0.099498145282 -0.10729412735
          -0.088702090085 -0.075760640204 -0.081801168621 -0.085904210806 -0.091636799276 -0.099527522922
          -0.071829631925 -0.098018586636 -0.10741625726 -0.1108603552 -0.07581872493 -0.16335907578
          -0.15432605147 -0.15161250532 -0.16488148272 -0.17251378298 -0.15433372557 -0.1416876018
          -0.14757023752 -0.15162357688 -0.15719658136 -0.1649056524 -0.13780812919 -0.16344690323
          -0.17259790003 -0.17597520351 -0.14171011746 -0.23698924482 -0.22798752785 -0.22528170049
          -0.23848877847 -0.2461130619 -0.22797597945 -0.21542656422 -0.22126324475 -0.22527080774
          -0.23083077371 -0.23848809302 -0.21156452596 -0.23700301349 -0.24614298344 -0.24953454733
          -0.21543005109 -0.31854948401 -0.30953025818 -0.30676448345 -0.3201200068 -0.32779550552
          -0.30954563618 -0.29692196846 -0.30279290676 -0.30678251386 -0.31241521239 -0.32012924552
          -0.2930611074 -0.31860458851 -0.32784965634 -0.33127608895 -0.29691675305 -0.40669542551
          -0.3977342248 -0.39494842291 -0.40833231807 -0.4159899056 -0.3977676034 -0.38515993953
          -0.39104795456 -0.39498379827 -0.40064054728 -0.40837064385 -0.38135939837 -0.40680283308
          -0.41608130932 -0.41953119636 -0.38517323136 -0.50032025576 -0.49144491553 -0.4886431098
          -0.50197273493 -0.50960940123 -0.49144408107 -0.47897562385 -0.48482406139 -0.48863297701
          -0.49432525039 -0.50198590755 -0.47525197268 -0.50034183264 -0.50962626934 -0.51312202215
          -0.47899702191 -0.5977819562 -0.58897918463 -0.58612972498 -0.59947699308 -0.60709506273
          -0.58895325661 -0.57658648491 -0.58240789175 -0.58609974384 -0.59185522795 -0.59946608543
          -0.57292979956 -0.59774827957 -0.60708504915 -0.610635221 -0.57660144567 -0.69716507196
          -0.68845552206 -0.68557012081 -0.6989352107 -0.70652329922 -0.68845671415 -0.6761611104
          -0.68195980787 -0.68557238579 -0.69134390354 -0.69893324375 -0.67254132032 -0.6971655488
          -0.70651936531 -0.71009278297 -0.67615234852 -0.79727327824 -0.78855592012 -0.7856336236
          -0.79907792807 -0.80669343472 -0.78856688738 -0.77625662088 -0.78205525875 -0.78566807508
          -0.79147207737 -0.79908001423 -0.7726520896 -0.79728424549 -0.80668473244 -0.81027555466
          -0.77622824907 -0.89732593298 -0.88859695196 -0.88569152355 -0.89911365509 -0.90673738718
          -0.88856565952 -0.87625998259 -0.88207626343 -0.88565570116 -0.89149200916 -0.8990958333
          -0.87266618013 -0.89728981256 -0.90671956539 -0.910328269 -0.8762691021 0.17119376361
          0.1874781251 0.19101333618 0.17029581964 0.15652570128 0.19067898393 0.21201555431
          0.20008122921 0.19714388251 0.18414860964 0.17226718366 0.21607792377 0.17733669281
          0.1602807641 0.15241363645 0.20796296 0.18502822518 0.20851643384 0.19395884871
          0.17608432472 0.16451407969 0.17272375524 0.1529840529 0.18104948103 0.19918185472
          0.20506839454 0.19135767221 0.21052564681 0.21688453853 0.17742118239 0.18739762902
          0.16157069802 0.17065067589 0.19937697053 0.22499471903 0.21275432408 0.21065868437
          0.23784297705 0.22489024699 0.20554889739 0.21718783677 0.19325609505 0.20418548584
          0.17750294507 0.18743391335 0.23227035999 0.24559183419 0.18136546016 0.19149085879
          0.16169816256 0.17064325511 0.15415173769 0.16269764304 0.22466380894 0.23756884038
          0.20227077603 0.22271484137 0.22942048311 0.1981523037 0.18035662174 0.22283366323
          0.25173646212 0.23801097274 0.22969774902 0.21597005427 0.19820085168 0.26007208228
          0.20242759585 0.1803971827 0.17199417949 0.25151580572 0.21246054769 0.23421670496
          0.2413225174 0.20811708272 0.18920426071 0.23431912065 0.26504361629 0.25048443675
          0.24155656993 0.22705721855 0.2081400305 0.27394530177 0.21256814897 0.18920771778
          0.18032601476 0.2648434639 0.22049751878 0.24359051883 0.25109755993 0.2159499377
          0.19588841498 0.24367980659 0.27618420124 0.26081228256 0.25130644441 0.23601560295
          0.21600072086 0.28565907478 0.22066773474 0.19598194957 0.18655127287 0.27604532242
          0.22567141056 0.24991300702 0.2578086257 0.22093045712 0.19987858832 0.25000891089
          0.28406006098 0.26798254251 0.25796619058 0.24197775126 0.22101038694 0.29405125976
          0.22590318322 0.20005016029 0.19013907015 0.28399035335 0.22747246921 0.2528142035
          0.26104062796 0.22252468765 0.20054525137 0.25287216902 0.28850293159 0.27169504762
          0.26116785407 0.24449983239 0.22256954014 0.29896634817 0.22762869298 0.20065920055
          0.19035319984 0.2884362638 0.22485980392 0.25132894516 0.25990915298 0.21969291568
          0.19674500823 0.25141960382 0.28868508339 0.27108797431 0.26009264588 0.24265015125
          0.21971991658 0.29959997535 0.22498904169 0.19679868221 0.18606990576 0.28853926063
          0.21726621687 0.24475236237 0.25368216634 0.21184144914 0.18800213933 0.24487170577
          0.28367972374 0.2653144002 0.25394412875 0.23572970927 0.21185842156 0.29497733712
          0.21736238897 0.18796394765 0.17682000995 0.28343939781 0.20546671748 0.23387078941
          0.24312970042 0.19977806509 0.17511607707 0.23398283124 0.2742049098 0.25514063239
          0.24343794584 0.22451026738 0.19976505637 0.28582561016 0.2054695785 0.17497144639
          0.16345505416 0.27387344837 0.19046208262 0.21959999204 0.2291059494 0.18457648158
          0.15926337242 0.21972450614 0.26109686494 0.24145051837 0.22947391868 0.20997615159
          0.18452432752 0.27299109101 0.19039772451 0.15899302065 0.14719116688 0.26065638661
          0.17261123657 0.20224714279 0.21193382144 0.16660155356 0.14083774388 0.20238657296
          0.24447116256 0.22447317839 0.21231582761 0.19245105982 0.16654770076 0.25652810931
          0.17254467309 0.14055745304 0.12854376435 0.24400188029 0.15225611627 0.18220794201
          0.19205956161 0.14612415433 0.12005054951 0.18236452341 0.2249469161 0.20470318198
          0.19246330857 0.17229756713 0.14607447386 0.23713839054 0.15221056342 0.11977372319
          0.10758081824 0.224484846 0.1306297034 0.16078050435 0.17076936364 0.12438320369
          0.098090320826 0.1608837992 0.2037525326 0.18339169025 0.17107002437 0.15075904131
          0.12432363629 0.21604396403 0.13053287566 0.097833901644 0.085489682853 0.20337873697
          0.10907588154 0.13935385644 0.14942649007 0.10277304798 0.076341956854 0.13943064213
          0.18239040673 0.16200323403 0.14964184165 0.12926135957 0.10274870694 0.19475668669
          0.1090252772 0.076182886958 0.063717357814 0.18213303387 0.088488191366 0.11887422204
          0.12902700901 0.082155123353 0.055601038039 0.11890804768 0.16195379198 0.14156708121
          0.1291462034 0.10872553289 0.08213146776 0.17439167202 0.088457770646 0.05552271381
          0.042985774577 0.16182154417 0.069137319922 0.099660284817 0.10987675935 0.062789388001
          0.036117080599 0.099701717496 0.14287759364 0.12244754285 0.10996161401 0.089471615851
          0.062790721655 0.15540133417 0.069147914648 0.036088824272 0.023469550535 0.14279647171
          0.051266487688 0.081888660789 0.09211653471 0.044917430729 0.01816495508 0.081891782582
          0.12517212331 0.10470974445 0.092147260904 0.07166261971 0.044913817197 0.13774359226
          0.051262851804 0.018151121214 0.0054993950762 0.12512432039 0.034403920174 0.065030351281
          0.075235955417 0.028072049841 0.0013281336287 0.065031602979 0.10828210413 0.087845541537
          0.075244732201 0.054815091193 0.028072411194 0.12089111656 0.03438988328 0.001316096168
          -0.011320857331 0.10826911032 0.017648164183 0.048267092556 0.058472029865 0.011341884732
          -0.015377600677 0.048253353685 0.09149441123 0.071080908179 0.058453459293 0.038048993796
          0.011332296766 0.10411544144 0.017628371716 -0.015384944156 -0.028002945706 0.091501109302
          0.1685051024 0.18692593277 0.19119893014 0.16707248986 0.15134106576 0.19037714601
          0.21486519277 0.20124074817 0.19783811271 0.18292826414 0.16914573312 0.21956944466
          0.17499995232 0.15525579453 0.14629435539 0.21047237515 0.18495467305 0.20902989805
          0.19385376573 0.17593611777 0.16391052306 0.17192320526 0.15174026787 0.15282568336
          0.15732969344 0.15283538401 0.14132811129 0.14345394075 0.14151604474 0.13502322137
          0.12786488235 0.12672819197 0.11753997952 0.11785388738 0.11381144822 0.12823100388
          0.10934715718 0.11217927188 0.10919875652 0.10136335343 0.10263258219 0.10160642862
          0.096560508013 0.091567240655 0.090468630195 0.083635568619 0.083799377084 0.080661736429
          0.091821216047 0.067518793046 0.069381535053 0.067240089178 0.062107115984 0.06279450655
          0.062405291945 0.058634739369 0.055483337492 0.05442962423 0.049859017134 0.04986045137
          0.04773529619 0.055634204298 0.033237654716 0.034189429134 0.032818477601 0.029928142205
          0.030160225928 0.03029910475 0.027571657673 0.025870142505 0.024912303314 0.022099751979
          0.021938087419 0.020614368841 0.025922117755 0.010164795443 0.010260630399 0.0095354411751
          0.0088036954403 0.0084406370297 0.0092792576179 0.0072048944421 0.0070474897511 0.0059178727679
          0.0047746123746 0.004417296499 0.0037972137798 0.0069918571971 1.5340157963e-11 -7.4641813563e-11
          -5.6116023286e-12 -1.8344254067e-12 -7.9769975347e-12 2.2883504987e-12 6.806916684e-13 7.0092599802e-14
          6.972625297e-15 0 0 0 1.7184052168e-14
        </DataArray>
        <DataArray type="Float32" Name="uy" format="ascii" RangeMin="-1.2580169439" RangeMax="0.88774478436">
          0.088312618434 0.089047178626 0.088408462703 0.060678023845 0.034244310111 0.039293464273
          0.037451531738 0.088555306196 0.089930348098 0.078686796129 0.060770817101 0.035863678902
          0.03409736231 0.044633109123 0.089048691094 0.078305877745 0.036394454539 0.044580604881
          0.088113687932 0.062858551741 0.041578765959 0.088278904557 0.041421521455 0.041879169643
          0.062591873109 0.087743856013 0.060432124883 -0.10372322053 -0.090512372553 -0.10407731682
          -0.080377444625 -0.066772080958 -0.080595597625 -0.085294634104 -0.061447672546 -0.093570262194
          -0.069961309433 -0.063310846686 -0.060089454055 -0.077062644064 -0.038626112044 -0.035374265164
          -0.052885662764 -0.049472782761 -0.024305749685 -0.076963067055 -0.052808213979 -0.068696282804
          -0.044217441231 -0.077346250415 -0.053149029613 -0.049825403839 -0.024593230337 -0.060623664409
          -0.035819150507 -0.077302239835 -0.053124643862 -0.094168543816 -0.070394396782 -0.13445954025
          -0.12182285637 -0.13480894268 -0.11682292819 -0.12475499511 -0.095689229667 -0.092593945563
          -0.10891988128 -0.082371644676 -0.10882569849 -0.10088915378 -0.10920086503 -0.082736112177
          -0.093158386648 -0.10918364674 -0.1253451556 -0.17291601002 -0.16083697975 -0.17324149609
          -0.15606449544 -0.16366438568 -0.13582463562 -0.13285927474 -0.14848835766 -0.12308277935
          -0.14839303493 -0.14080826938 -0.14875717461 -0.12344036251 -0.13342672586 -0.14876766503
          -0.16419921815 -0.21907824278 -0.2075983882 -0.2193672061 -0.2030980736 -0.21031059325
          -0.18391890824 -0.18108473718 -0.1958771497 -0.17186567187 -0.19582256675 -0.18864795566
          -0.19610653818 -0.172191903 -0.18164311349 -0.19618500769 -0.21075065434 -0.27217185497
          -0.26124733686 -0.27242615819 -0.25697317719 -0.26379838586 -0.23879989982 -0.23610323668
          -0.25013700128 -0.22736500204 -0.25007849932 -0.24327048659 -0.25032457709 -0.22767673433
          -0.23660391569 -0.25037559867 -0.26421999931 -0.33124399185 -0.32088175416 -0.33150812984
          -0.31680169702 -0.32325384021 -0.29955121875 -0.2969442606 -0.31028971076 -0.28872564435
          -0.31025731564 -0.3038046062 -0.31042441726 -0.28905105591 -0.29748862982 -0.31051015854
          -0.32367679477 -0.39485117793 -0.384914428 -0.3951665163 -0.38097083569 -0.387116611
          -0.36446020007 -0.36188912392 -0.37473401427 -0.3540828824 -0.37471872568 -0.36852827668
          -0.37482047081 -0.3544293642 -0.36248266697 -0.37490239739 -0.38759544492 -0.46127280593
          -0.4517108202 -0.46159371734 -0.44788581133 -0.45378890634 -0.43202164769 -0.42952936888
          -0.44189834595 -0.4220456183 -0.44188389182 -0.4359395206 -0.4419465661 -0.42239776254
          -0.43010526896 -0.44201722741 -0.45427918434 -0.52983528376 -0.52059060335 -0.5301823616
          -0.51687180996 -0.52256089449 -0.50151252747 -0.49906545877 -0.51106613874 -0.4918743968
          -0.51106244326 -0.5052973628 -0.51111274958 -0.49223661423 -0.49968108535 -0.51116859913
          -0.52309161425 -0.60029536486 -0.59127247334 -0.60067200661 -0.58761835098 -0.59314584732
          -0.5726275444 -0.57021230459 -0.5819671154 -0.56319105625 -0.58196890354 -0.57633405924
          -0.58198654652 -0.56359291077 -0.57086747885 -0.58203476667 -0.59373521805 -0.67185044289
          -0.66303467751 -0.6722368598 -0.65945374966 -0.66482925415 -0.64479917288 -0.64239108562
          -0.65391951799 -0.63556373119 -0.65392643213 -0.64842551947 -0.65391778946 -0.63597714901
          -0.64306938648 -0.65396106243 -0.66543269157 -0.74409097433 -0.73528397083 -0.74445641041
          -0.73173391819 -0.73709702492 -0.71711182594 -0.71471273899 -0.72619384527 -0.70792746544
          -0.72620785236 -0.72072166204 -0.72617208958 -0.70832669735 -0.71538066864 -0.72625547647
          -0.73766100407 -0.81670325994 -0.80782341957 -0.8170234561 -0.80424851179 -0.80967342854
          -0.78955125809 -0.78717494011 -0.79868292809 -0.78033185005 -0.79869741201 -0.79315912724
          -0.79868769646 -0.78067719936 -0.78776156902 -0.7987293601 -0.81018906832 -0.88951563835
          -0.88061410189 -0.88977628946 -0.87705892324 -0.8825225234 -0.86239755154 -0.86008059978
          -0.87151521444 -0.85321247578 -0.87151533365 -0.86596894264 -0.87151682377 -0.85349601507
          -0.86053323746 -0.8715364933 -0.88294237852 -0.96278470755 -0.95389711857 -0.96297580004
          -0.95039397478 -0.95585697889 -0.93583744764 -0.93359798193 -0.94487166405 -0.92676347494
          -0.94487243891 -0.93935078382 -0.94488662481 -0.92696487904 -0.93391084671 -0.94490003586
          -0.95616137981 -1.0366090536 -1.0277005434 -1.0367027521 -1.0242486 -1.0297291279
          -1.0097301006 -1.0075489283 -1.0187113285 -1.000721693 -1.0187175274 -1.0132023096
          -1.0187164545 -1.0008306503 -1.0077222586 -1.0187425613 -1.0298873186 -1.1104968786
          -1.1015855074 -1.110529542 -1.0981550217 -1.1036547422 -1.0836961269 -1.0815627575
          -1.0926437378 -1.0747557878 -1.092640996 -1.087122798 -1.0926272869 -1.0747988224
          -1.0816268921 -1.0926368237 -1.1037197113 -1.184356451 -1.1754039526 -1.1843701601
          -1.1719858646 -1.1774976254 -1.1575146914 -1.155388236 -1.1664578915 -1.1485738754
          -1.1664522886 -1.160933733 -1.1664507389 -1.148581028 -1.155408144 -1.1664469242
          -1.1775257587 -1.2580169439 -1.249044776 -1.2580126524 -1.245631814 -1.25116992
          -1.2311085463 -1.2289865017 -1.240069747 -1.2221390009 -1.2400778532 -1.2345315218
          -1.2400592566 -1.2221382856 -1.2289799452 -1.2400795221 -1.2511556149 -0.034898802638
          -0.025645563379 -0.035185441375 -0.021890824661 -0.027705254033 -0.0059829647653 -0.0037824814208
          -0.016011111438 0.0040409695357 -0.015895111486 -0.009884881787 -0.016278795898 0.0038343679626
          -0.004079002887 -0.016148861498 -0.028218695894 0.045805841684 0.046733845025 0.04983291775
          0.04176415503 0.044358927757 0.049802239984 0.046809736639 0.23494261503 0.21638898551
          0.23492904007 0.25584861636 0.23621608317 0.2559004426 0.20926140249 0.22863928974
          0.22076451778 0.24081632495 0.17926037312 0.17511850595 0.19790761173 0.19676631689
          0.19226036966 0.21657927334 0.16078512371 0.17702451348 0.19780354202 0.21648852527
          0.18625678122 0.20422880352 0.19807100296 0.21669611335 0.16062323749 0.17690531909
          0.17475365102 0.19197155535 0.1977442801 0.21642318368 0.22087907791 0.24097943306
          0.27832731605 0.25747987628 0.27844312787 0.24942934513 0.26231840253 0.21557964385
          0.21071474254 0.23658192158 0.1946271807 0.23652006686 0.22355605662 0.23669689894
          0.19460973144 0.21062316 0.23647449911 0.26256215572 0.30221241713 0.28008657694
          0.30237522721 0.27151077986 0.28517359495 0.23553408682 0.23028418422 0.25786089897
          0.21322159469 0.25781241059 0.24404080212 0.25793865323 0.21327245235 0.23031869531
          0.25776010752 0.28550031781 0.32725480199 0.30383437872 0.32745632529 0.29472991824
          0.30916905403 0.25666043162 0.2510754168 0.28028601408 0.23306185007 0.28023150563
          0.26566192508 0.280341506 0.23313948512 0.25114130974 0.28013280034 0.30956599116
          0.35215225816 0.32756766677 0.35237947106 0.31800675392 0.33314076066 0.27807083726
          0.27217924595 0.30284023285 0.25332844257 0.30280008912 0.28751543164 0.30287897587
          0.25343891978 0.27229270339 0.30269280076 0.33356866241 0.37628298998 0.35062274337
          0.37655049562 0.34062463045 0.35642287135 0.29888987541 0.29270401597 0.32478907704
          0.27300304174 0.32473364472 0.30878591537 0.32482141256 0.27316594124 0.29290124774
          0.32464417815 0.35691326857 0.40024793148 0.37345322967 0.40053668618 0.36302518845
          0.3795414567 0.31940245628 0.31293109059 0.34645679593 0.29232212901 0.34641352296
          0.32977122068 0.34652274847 0.292524755 0.31321179867 0.34638047218 0.38005298376
          0.42483392358 0.39694187045 0.42509493232 0.38612446189 0.40335708857 0.34068629146
          0.33399808407 0.36886793375 0.31248325109 0.36881199479 0.35148239136 0.36896973848
          0.31265810132 0.33425286412 0.36884588003 0.40381589532 0.45101428032 0.42211389542
          0.45122784376 0.41092807055 0.42882797122 0.36387398839 0.35704544187 0.39308989048
          0.33468210697 0.39299920201 0.37504675984 0.39324072003 0.33480122685 0.3571819365
          0.39306852221 0.42924013734 0.48007935286 0.45039579272 0.48028549552 0.43891710043
          0.45733842254 0.39051049948 0.38352957368 0.42058622837 0.36046606302 0.42047667503
          0.40199819207 0.42077773809 0.36056488752 0.3836170733 0.4205840826 0.45773971081
          0.51282823086 0.48260506988 0.51299482584 0.47095221281 0.48972406983 0.42172092199
          0.41464906931 0.45229294896 0.39116576314 0.45218402147 0.43339127302 0.45251044631
          0.39123961329 0.41470262408 0.45233350992 0.49005648494 0.55037254095 0.51974105835
          0.55048704147 0.50798565149 0.52701628208 0.45811089873 0.45095023513 0.48903769255
          0.42718821764 0.48895096779 0.46993470192 0.48923262954 0.42722308636 0.45097312331
          0.48912280798 0.52722740173 0.59238672256 0.56144964695 0.59242457151 0.54960560799
          0.56882989407 0.49934896827 0.49216413498 0.53050404787 0.4682354629 0.53042674065
          0.5112375021 0.53066813946 0.46821603179 0.49208515882 0.53056555986 0.56892699003
          0.63821947575 0.60709643364 0.63820117712 0.59522467852 0.6145336628 0.54477643967
          0.53755414486 0.57599967718 0.51359534264 0.57595264912 0.55668216944 0.57612210512
          0.51353400946 0.53742486238 0.57604342699 0.61452609301 0.68679893017 0.655567348
          0.68675947189 0.64364409447 0.66299170256 0.59310215712 0.58582448959 0.62437397242
          0.56186485291 0.62433457375 0.60501432419 0.62443995476 0.56178593636 0.58568626642
          0.62436503172 0.66296190023 0.73668009043 0.70529747009 0.73663026094 0.69333720207
          0.71275174618 0.64258104563 0.63524383307 0.67395788431 0.6112241745 0.6739436388
          0.65454089642 0.6739833951 0.61115533113 0.63512134552 0.67395281792 0.71268761158
          0.78699934483 0.75554597378 0.78696334362 0.74353057146 0.76298737526 0.69264781475
          0.68528103828 0.72412198782 0.66120386124 0.72409582138 0.70462864637 0.7241499424
          0.66113966703 0.68515372276 0.72407263517 0.76296246052 0.8374273181 0.805986166
          0.83741790056 0.79397517443 0.81342196465 0.7430960536 0.73569768667 0.774548769
          0.71166735888 0.77454566956 0.75509357452 0.77455496788 0.71163916588 0.73564910889
          0.77452743053 0.81340306997 0.88774353266 0.85632956028 0.88774478436 0.84432637691
          0.86373627186 0.79348826408 0.7860737443 0.82490772009 0.76206940413 0.82490861416
          0.80548751354 0.82490980625 0.76207542419 0.78606396914 0.82489919662 0.86374515295
          0.17700333893 0.16635407507 0.17721509933 0.16208232939 0.16874566674 0.14429588616
          0.14193014801 0.15551495552 0.13316118717 0.15535905957 0.14853124321 0.15577726066
          0.13313163817 0.14180639386 0.15545509756 0.16917543113 0.086608745158 0.086428172886
          0.085244983435 0.087865434587 0.087030678988 0.085372909904 0.086476638913 0.036612067372
          0.049781791866 0.062900871038 0.070678666234 0.049716234207 0.028799196705 0.049661111087
          0.070225819945 0.049589984119 0.062046077102 0.036968141794 0.049488086253 0.029040737078
          0.026748234406 0.035971477628 0.045170474797 0.050889331847 0.035915356129 0.020930856466
          0.035880353302 0.050881534815 0.035828195512 0.045088537037 0.02647273615 0.035737521946
          0.020804136992 0.015893299133 0.022098399699 0.028157649562 0.032036926597 0.021932521835
          0.011727033183 0.021860478446 0.032216846943 0.021831633523 0.028390452266 0.015237081796
          0.021835546941 0.011383417994 0.006591884885 0.010307070799 0.01386547368 0.016260990873
          0.010101228952 0.0037520329934 0.010033200495 0.016625955701 0.010011111386 0.014392132871
          0.0056969085708 0.010094313882 0.0032468033023 0.0014254152775 0.0028525018133 0.0039725084789
          0.0050592515618 0.0025021648034 -0.0003487066424 0.0023960198741 0.0057181227021 0.0023990259506
          0.0050010513514 -1.6599295122e-05 0.0025955971796 -0.0011688693194 5.6765684953e-14 -2.6783534158e-12
          4.0730669705e-12 -8.453551986e-13 1.9961369797e-12 1.053946901e-13 2.4798476532e-13 5.4568617013e-14
          -3.9175768478e-14 0 0 0 0
        </DataArray>
        <DataArray type="Float32" Name="uz" format="ascii" RangeMin="-0.092335619032" RangeMax="0.040904641151">
          0.0060263858177 0.0025415830314 0.0048181666061 -0.0028176542837 -0.012646549381 -0.010938004591
          -0.0128667932 0.003302389523 -0.0016482204664 -0.0020220393781 -0.0058282576501 -0.014159379527
          -0.014586613514 -0.012908431701 0.0079139070585 0.0047591575421 -0.010496897623 -0.007456602063
          -0.00098978332244 -0.0081131272018 -0.011833701283 -0.0035690469667 -0.012702786364 -0.0091387564316
          -0.00083235662896 0.0069621568546 -0.004268579185 -0.028188683093 -0.021378580481 -0.018420046195
          -0.030467675999 -0.023750413209 -0.023184889928 -0.030414100736 -0.029929742217 -0.036489926279
          -0.035418447107 -0.022392526269 -0.01214923244 -0.016421280801 -0.021479075775 -0.013725259341
          -0.018605913967 -0.020442899317 -0.018448201939 -0.024326821789 -0.024440528825 -0.031037759036
          -0.028397137299 -0.0085187340155 -0.01287477836 -0.030219063163 -0.025414483622 -0.037723314017
          -0.032177891582 -0.040117587894 -0.036112986505 -0.010908232071 -0.01641247794 -0.025562921539
          -0.018659861758 -0.013132179156 -0.030841555446 -0.037468545139 -0.023568959907 -0.010994476266
          -0.014161922038 -0.022918317467 -0.024218002334 -0.033861070871 -0.0041149407625 -0.035321403295
          -0.043489921838 -0.044312704355 -0.0049297544174 -0.023049043491 -0.016084892675 -0.0079051880166
          -0.03143209219 -0.038636822253 -0.024822602049 -0.0098424861208 -0.01198974438 -0.025424666703
          -0.024233106524 -0.036841213703 0.00024765179842 -0.040557824075 -0.04946250841 -0.048721257597
          0.00098744337447 -0.020899528638 -0.013773245737 -0.0032218913548 -0.032091762871 -0.039885237813
          -0.026014525443 -0.0087357470766 -0.01001547277 -0.027724618092 -0.024307830259 -0.039653837681
          0.0043028621003 -0.045405048877 -0.055029388517 -0.052917286754 0.0063980403356 -0.018943566829
          -0.011765235104 0.00093395111617 -0.03266652301 -0.040924813598 -0.027203572914 -0.0079797040671
          -0.0083865746856 -0.029949741438 -0.024443570524 -0.042197696865 0.0077085327357 -0.049816258252
          -0.059998195618 -0.056596204638 0.011108692735 -0.016915477812 -0.0099464608356 0.0047196806408
          -0.033022992313 -0.041494157165 -0.028471402824 -0.0077322069556 -0.0071287536994 -0.0323090069
          -0.024602653459 -0.044469650835 0.010416567326 -0.053953874856 -0.064388841391 -0.059618730098
          0.01515866071 -0.014520972036 -0.0082313008606 0.0083381077275 -0.03304977715 -0.041334941983
          -0.029993282631 -0.0083165764809 -0.0063361530192 -0.035109926015 -0.024819225073 -0.046495366842
          0.012181059457 -0.057986054569 -0.06818523258 -0.061822455376 0.018536778167 -0.011554845609
          -0.006395926699 0.012146617286 -0.032665621489 -0.040391970426 -0.031690549105 -0.0095578636974
          -0.0057945167646 -0.038381949067 -0.02497231774 -0.048295553774 0.013391601853 -0.062082130462
          -0.071598276496 -0.063322231174 0.021674716845 -0.0081292763352 -0.0044223605655 0.016197301447
          -0.031983137131 -0.038926813751 -0.03352079168 -0.011175522581 -0.0053691696376 -0.041980862617
          -0.025057256222 -0.049974523485 0.014331333339 -0.066326670349 -0.07491260767 -0.0644402951
          0.02478033863 -0.0044987197034 -0.0024269628339 0.020323604345 -0.031185491011 -0.037228420377
          -0.03552685678 -0.013133401051 -0.0051120179705 -0.045846350491 -0.025174073875 -0.051653377712
          0.014979213476 -0.070690006018 -0.078143760562 -0.065355375409 0.027756758034 -0.00060359336203
          -0.00039690136327 0.024485683069 -0.030206052586 -0.035129308701 -0.03766072914 -0.015501479618
          -0.0050159473903 -0.050005443394 -0.025302782655 -0.053219184279 0.015277131461 -0.075071305037
          -0.081135414541 -0.065881922841 0.030553910881 0.0034960396588 0.0016190167516 0.028679115698