<VTKFile type="UnstructuredGrid" version="1.0" byte_order="LittleEndian" header_type="UInt64">
  <UnstructuredGrid>
    <Piece NumberOfPoints="791" NumberOfCells="973">
      <PointData>
        <DataArray type="Float32" Name="ux" format="ascii" RangeMin="-0.72549819946" RangeMax="2.4511673941e-11">
          -0.065225481987 -0.071010284126 -0.073324352503 -0.064151249826 -0.065234713256 -0.073248118162
          -0.071069136262 -0.065205141902 -0.069537103176 -0.066190749407 -0.064153984189 -0.069579780102
          -0.065247967839 -0.066247500479 -0.069593034685 -0.06626598537 -0.069602049887 -0.066215470433
          -0.076908998191 -0.069129660726 -0.076994948089 -0.076882973313 -0.076953954995 -0.07691308111
          -0.069143943489 -0.077001482248 -0.063450850546 -0.14280277491 -0.14313140512 -0.14330160618
          -0.1166664958 -0.11702527851 -0.11716922373 -0.14269840717 -0.11659457535 -0.14237160981
          -0.11625123024 -0.14311343431 -0.14351764321 -0.14334362745 -0.11702769995 -0.11742226034
          -0.11724604666 -0.14323359728 -0.11716061085 -0.14300023019 -0.11690733582 -0.14272235334
          -0.11664298922 -0.14366829395 -0.11755978316 -0.14285333455 -0.11680399626 -0.14246191084
          -0.11641166359 -0.14224797487 -0.11616224796 -0.14361907542 -0.11749179661 -0.1700475812
          -0.17038096488 -0.17053811252 -0.16995427012 -0.16963003576 -0.17036794126 -0.17077462375
          -0.1705955863 -0.1704891175 -0.17025485635 -0.16998034716 -0.17091919482 -0.17010782659
          -0.16972404718 -0.16951359808 -0.17085756361 -0.19833242893 -0.19866238534 -0.19881501794
          -0.19824168086 -0.19792334735 -0.19865164161 -0.19906353951 -0.19888064265 -0.19877044857
          -0.19853912294 -0.19826427102 -0.19920702279 -0.19838392735 -0.19800435007 -0.19780397415
          -0.19913759828 -0.22752639651 -0.22785529494 -0.22800135612 -0.22743888199 -0.22712600231
          -0.22784538567 -0.22826129198 -0.22807516158 -0.22796274722 -0.22773380578 -0.22745880485
          -0.22840312123 -0.22757205367 -0.2271977365 -0.22700552642 -0.22832643986 -0.25751826167
          -0.25784504414 -0.25798606873 -0.25743359327 -0.25712543726 -0.25783708692 -0.25825664401
          -0.25806742907 -0.25795245171 -0.25772601366 -0.25745108724 -0.25839710236 -0.25755801797
          -0.25718817115 -0.2570039928 -0.25831311941 -0.28820282221 -0.2885287106 -0.288664639
          -0.28812128305 -0.28781720996 -0.28852161765 -0.28894513845 -0.28875264525 -0.28863567114
          -0.28841155767 -0.28813633323 -0.28908416629 -0.28823769093 -0.28787142038 -0.28769463301
          -0.28899389505 -0.3194835186 -0.3198082149 -0.31993991137 -0.31940442324 -0.31910434365
          -0.31980228424 -0.32022950053 -0.32003429532 -0.31991544366 -0.31969285011 -0.31941756606
          -0.32036748528 -0.31951338053 -0.31915077567 -0.31898084283 -0.32027110457 -0.35126969218
          -0.35159355402 -0.35172101855 -0.35119310021 -0.3508965373 -0.35158875585 -0.35201945901
          -0.35182163119 -0.35170054436 -0.35147976875 -0.35120424628 -0.35215637088 -0.35129526258
          -0.35093593597 -0.350772053 -0.35205441713 -0.38347837329 -0.38380151987 -0.3839250505
          -0.38340377808 -0.38311049342 -0.38379773498 -0.38423156738 -0.38403102756 -0.38390824199
          -0.38368910551 -0.38341325521 -0.38436755538 -0.38349965215 -0.38314318657 -0.38298514485
          -0.38426032662 -0.41603338718 -0.41635578871 -0.41647595167 -0.41596069932 -0.41567015648
          -0.41635283828 -0.41678977013 -0.41658702493 -0.41646239161 -0.41624468565 -0.41596823931
          -0.41692498326 -0.41605103016 -0.41569697857 -0.41554382443 -0.41681295633 -0.4488658011
          -0.44918751717 -0.4493046701 -0.44879463315 -0.44850683212 -0.4491853714 -0.44962513447
          -0.44942033291 -0.44929435849 -0.449077636 -0.44880074263 -0.44975966215 -0.44888004661
          -0.44852817059 -0.44837936759 -0.44964331388 -0.48191437125 -0.4822358191 -0.48235011101
          -0.48184481263 -0.48155876994 -0.48223409057 -0.48267641664 -0.48246982694 -0.48234245181
          -0.48212647438 -0.48184937239 -0.48281022906 -0.48192551732 -0.48157528043 -0.48143076897
          -0.48269051313 -0.51512622833 -0.51544725895 -0.51555979252 -0.5150577426 -0.51477372646
          -0.51544600725 -0.51589089632 -0.5156826973 -0.51555430889 -0.51533895731 -0.51506149769
          -0.51602429152 -0.51513469219 -0.51478594542 -0.51464480162 -0.51590102911 -0.5484572053
          -0.5487780571 -0.5488884449 -0.54838961363 -0.5481069684 -0.54877728224 -0.54922395945
          -0.54901409149 -0.54888468981 -0.54867011309 -0.54839229584 -0.5493568778 -0.54846334457
          -0.54811573029 -0.5479773283 -0.54923117161 -0.58187031746 -0.58219081163 -0.58230006695
          -0.58180356026 -0.58152192831 -0.58219063282 -0.58263915777 -0.58242803812 -0.58229768276
          -0.58208358288 -0.58180505037 -0.58277130127 -0.58187437057 -0.58152788877 -0.58139175177
          -0.58264356852 -0.61533588171 -0.61565637589 -0.6157643199 -0.61526948214 -0.61498892307
          -0.61565625668 -0.61610621214 -0.61589413881 -0.61576324701 -0.61554932594 -0.61527061462
          -0.61623841524 -0.6153383255 -0.61499220133 -0.61485773325 -0.61610871553 -0.64883041382
          -0.64915072918 -0.64925819635 -0.64876443148 -0.64848446846 -0.64915090799 -0.64960193634
          -0.64938926697 -0.64925789833 -0.64904415607 -0.64876490831 -0.64973413944 -0.64883172512
          -0.64848601818 -0.64835298061 -0.64960289001 -0.68233770132 -0.68265789747 -0.6827647686
          -0.68227171898 -0.68199235201 -0.68265801668 -0.68310987949 -0.68289649487 -0.68276488781
          -0.68255126476 -0.6822719574 -0.68324154615 -0.68233817816 -0.68199282885 -0.68186056614
          -0.68311005831 -0.71584802866 -0.71616792679 -0.71627479792 -0.71578210592 -0.71550267935
          -0.71616822481 -0.71662014723 -0.7164067626 -0.71627473831 -0.71606135368 -0.71578210592
          -0.71675187349 -0.71584814787 -0.71550261974 -0.71537059546 -0.71662014723 -0.082599550486
          -0.086890771985 -0.082884714007 -0.088175609708 -0.085454046726 -0.094962604344 -0.096176810563
          -0.091078013182 -0.099089466035 -0.09086125344 -0.093177869916 -0.091282099485 -0.098855391145
          -0.095527090132 -0.090390145779 -0.086238853633 -0.082992568612 -0.084374822676 -0.088987752795
          -0.076980121434 -0.080667480826 -0.088981345296 -0.084346845746 -0.1177098304 -0.11731348187
          -0.11719106883 -0.14424756169 -0.14382889867 -0.14373357594 -0.11773625761 -0.14424584806
          -0.11804497987 -0.14457963407 -0.1173518151 -0.11691179872 -0.11705623567 -0.14383783937
          -0.1433698386 -0.14355377853 -0.1173247546 -0.14377453923 -0.11743447185 -0.14393530786
          -0.11771757156 -0.14421582222 -0.11665884405 -0.14315313101 -0.11769425124 -0.14417244494
          -0.11796680838 -0.14447051287 -0.118117176 -0.14463250339 -0.11676169187 -0.14328923821
          -0.17189094424 -0.17148736119 -0.17138494551 -0.17190206051 -0.17222388089 -0.17150035501
          -0.17103905976 -0.1712192595 -0.17143763602 -0.17159600556 -0.17187720537 -0.17082563043
          -0.17183545232 -0.17213509977 -0.17228983343 -0.17095376551 -0.20057541132 -0.20017930865
          -0.20007739961 -0.20059247315 -0.20091198385 -0.20019052923 -0.19972701371 -0.19991335273
          -0.20012095571 -0.20028829575 -0.20057035983 -0.19952358305 -0.20052464306 -0.20083196461
          -0.2009858638 -0.19965450466 -0.23017123342 -0.22978328168 -0.22968021035 -0.23019452393
          -0.23050996661 -0.22979272902 -0.22932942212 -0.22951957583 -0.22971846163 -0.22989232838
          -0.2301748395 -0.22913382947 -0.23012654483 -0.23043982685 -0.23059135675 -0.22926527262
          -0.26056689024 -0.26018646359 -0.2600825429 -0.26059597731 -0.26090809703 -0.26019480824
          -0.2597309351 -0.25992521644 -0.26011562347 -0.26029548049 -0.26057901978 -0.25954341888
          -0.26052775979 -0.26084652543 -0.26099637151 -0.25967544317 -0.29165861011 -0.29128539562
          -0.29118049145 -0.29169300199 -0.29200169444 -0.29129213095 -0.29082813859 -0.29102599621
          -0.29120859504 -0.29139438272 -0.29167827964 -0.29064759612 -0.29162475467 -0.29194879532
          -0.29209646583 -0.29078033566 -0.32334953547 -0.32298272848 -0.32287716866 -0.32338893414
          -0.32369434834 -0.32298853993 -0.32252410054 -0.32272526622 -0.32290095091 -0.32309171557
          -0.32337632775 -0.32235053182 -0.32332032919 -0.32364922762 -0.32379534841 -0.32248386741
          -0.3555495739 -0.35518866777 -0.3550824523 -0.35559341311 -0.3558960557 -0.35519325733
          -0.35472890735 -0.35493326187 -0.35510224104 -0.35529765487 -0.35558259487 -0.35456138849
          -0.35552495718 -0.35585817695 -0.35600244999 -0.35469502211 -0.38817512989 -0.38781958818
          -0.38771280646 -0.38822332025 -0.38852342963 -0.38782337308 -0.38735863566 -0.387565732
          -0.38772886992 -0.3879288733 -0.38821437955 -0.38719704747 -0.38815450668 -0.38849186897
          -0.38863486052 -0.38733094931 -0.42115074396 -0.42080017924 -0.42069259286 -0.4212026
          -0.42150065303 -0.42080292106 -0.42033794522 -0.42054781318 -0.42070531845 -0.42090952396
          -0.42119544744 -0.42018130422 -0.42113393545 -0.42147484422 -0.42161676288 -0.42031562328
          -0.45440843701 -0.45406201482 -0.45395430923 -0.45446375012 -0.45475953817 -0.45406427979
          -0.45359909534 -0.45381093025 -0.45396384597 -0.45417147875 -0.45445778966 -0.45344659686
          -0.45439493656 -0.4547393024 -0.45488005877 -0.45358148217 -0.48788839579 -0.48754578829
          -0.48743742704 -0.48794668913 -0.48824083805 -0.48754730821 -0.48708155751 -0.48729550838
          -0.4874445796 -0.48765525222 -0.48794201016 -0.48693311214 -0.48787799478 -0.48822507262
          -0.48836457729 -0.48706835508 -0.52153909206 -0.52119940519 -0.52109032869 -0.52159965038
          -0.5218924284 -0.52120029926 -0.52073425055 -0.52094995975 -0.52109575272 -0.52130907774
          -0.52159649134 -0.52058899403 -0.52153110504 -0.5218809247 -0.52201980352 -0.5207247138
          -0.55531597137 -0.55497866869 -0.55486923456 -0.55537885427 -0.55567061901 -0.55497926474
          -0.55451261997 -0.5547298789 -0.55487275124 -0.55508846045 -0.55537641048 -0.55437010527
          -0.55531001091 -0.55566215515 -0.55580031872 -0.55450600386 -0.58918130398 -0.58884596825
          -0.58873611689 -0.5892457366 -0.58953672647 -0.58884608746 -0.58837896585 -0.5885977149
          -0.58873832226 -0.58895593882 -0.58924412727 -0.58823859692 -0.58917725086 -0.58953136206
          -0.58966898918 -0.58837491274 -0.62310373783 -0.62276989222 -0.62265992165 -0.62316972017
          -0.6234600544 -0.62277007103 -0.62230229378 -0.62252211571 -0.62266081572 -0.6228801012
          -0.6231687665 -0.62216365337 -0.62310123444 -0.62345683575 -0.62359398603 -0.62230014801
          -0.65705889463 -0.6567261219 -0.65661591291 -0.65712618828 -0.65741610527 -0.65672630072
          -0.65625840425 -0.65647882223 -0.65661627054 -0.65683656931 -0.65712571144 -0.65612065792
          -0.65705764294 -0.65741419792 -0.65755134821 -0.65625733137 -0.69102931023 -0.69069725275
          -0.69058668613 -0.69109719992 -0.69138711691 -0.69069731236 -0.69022887945 -0.69044989347
          -0.69058668613 -0.69080770016 -0.69109714031 -0.69009190798 -0.69102877378 -0.69138652086
          -0.69152313471 -0.69022864103 -0.72500389814 -0.72467195988 -0.72456133366 -0.72507220507
          -0.72536164522 -0.72467201948 -0.72420352697 -0.724424541 -0.72456127405 -0.72478252649
          -0.72507190704 -0.72406667471 -0.72500371933 -0.72536164522 -0.72549819946 -0.72420322895
          -0.082913249731 -0.086816944182 -0.082596540451 -0.088655643165 -0.086320236325 -0.095013581216
          -0.095696136355 -0.090744413435 -0.099096015096 -0.090992085636 -0.093702442944 -0.090476021171
          -0.099337622523 -0.096399188042 -0.091438286006 -0.085485495627 -0.083002604544 -0.084351092577
          -0.089018955827 -0.076979607344 -0.080717407167 -0.08906544745 -0.084439218044 -0.042688731104
          -0.042426556349 -0.042390756309 -0.042690642178 -0.042598687112 -0.04284100607 -0.042629100382
          -0.042867098004 -0.04260712117 -0.042709518224 -0.042392708361 -0.042444825172 -0.042675063014
          -0.026422139257 -0.026270313188 -0.026163646951 -0.026380123571 -0.026283569634 -0.026513708755
          -0.026294225827 -0.026527905837 -0.026288328692 -0.026440318674 -0.026168389246 -0.02628341876
          -0.026374401525 -0.014382325113 -0.014198200777 -0.014105821028 -0.01434336789 -0.014246650971
          -0.014485781081 -0.014258889481 -0.014500614256 -0.014250512235 -0.014397230931 -0.014106697403
          -0.01420837082 -0.014335072599 -0.0062011335976 -0.0060295239091 -0.0059356964193 -0.0061621111818
          -0.0060705738142 -0.0062993783504 -0.0060833441094 -0.006312223617 -0.0060732201673 -0.0062129115686
          -0.0059342454188 -0.0060360594653 -0.0061533884145 -0.0015890789218 -0.001376328757 -0.0012609111145
          -0.001538152108 -0.0014181345468 -0.0017082107952 -0.0014280980686 -0.001721689594 -0.0014192056842
          -0.0015991919208 -0.0012557414593 -0.0013796052663 -0.0015269072028 -8.2467192797e-12 2.4511673941e-11
          5.0560246094e-12 7.0696519385e-13 3.5619413235e-12 -2.5125293014e-13 -3.3797883112e-13 1.1268673914e-14
          7.5696152829e-16 0 0 0 1.7777818665e-16
        </DataArray>
        <DataArray type="Float32" Name="uy" format="ascii" RangeMin="-0.79965734482" RangeMax="1.4067303095e-12">
          -0.070123955607 -0.076238580048 -0.078707389534 -0.069075904787 -0.07009703666 -0.078654609621
          -0.076286278665 -0.070083782077 -0.07476631552 -0.071253538132 -0.069084249437 -0.074945196509
          -0.070148073137 -0.07130407542 -0.074950009584 -0.071317449212 -0.07481675595 -0.071274168789
          -0.082605704665 -0.074351839721 -0.082703635097 -0.08266646415 -0.082762949169 -0.082677841187
          -0.07438852638 -0.082738690078 -0.068318463862 -0.15558463335 -0.15597890317 -0.1556417346
          -0.12599015236 -0.12639448047 -0.12603390217 -0.15610235929 -0.12652929127 -0.15588052571
          -0.12629501522 -0.15663200617 -0.15670204163 -0.15632981062 -0.12705755234 -0.12713882327
          -0.12675313652 -0.15691882372 -0.12734413147 -0.15631534159 -0.12674328685 -0.15654185414
          -0.1269762367 -0.15637147427 -0.12680050731 -0.15698115528 -0.12741169333 -0.15680164099
          -0.12724912167 -0.15637677908 -0.12681168318 -0.15597143769 -0.12637218833 -0.18638968468
          -0.18677830696 -0.18643823266 -0.18690347672 -0.18668095767 -0.18743488193 -0.18750828505
          -0.18712873757 -0.18772813678 -0.18711598217 -0.18734069169 -0.18716655672 -0.18778182566
          -0.18759471178 -0.18716956675 -0.18676066399 -0.21828566492 -0.21866646409 -0.21832895279
          -0.21879135072 -0.21857230365 -0.21932153404 -0.21939454973 -0.21901357174 -0.21961794794
          -0.21900226176 -0.21922397614 -0.21904662251 -0.21966578066 -0.21947190166 -0.2190502882
          -0.21864207089 -0.2511433959 -0.25151705742 -0.25118097663 -0.25164183974 -0.25142526627
          -0.2521713376 -0.25224477053 -0.25186124444 -0.25247105956 -0.25185167789 -0.25207060575
          -0.2518903017 -0.25251308084 -0.25231277943 -0.25189378858 -0.25148636103 -0.28484639525
          -0.28521329165 -0.2848790288 -0.28533816338 -0.28512370586 -0.28586673737 -0.28594079614
          -0.28555494547 -0.28616970778 -0.28554648161 -0.2857632935 -0.28558036685 -0.28620612621
          -0.28599992394 -0.2855835557 -0.28517651558 -0.31928542256 -0.31964671612 -0.31931349635
          -0.31977152824 -0.31955903769 -0.3202996254 -0.32037380338 -0.31998589635 -0.32060554624
          -0.3199788928 -0.32019332051 -0.32000795007 -0.3206371069 -0.32042500377 -0.32001081109
          -0.31960427761 -0.35436090827 -0.35471701622 -0.35438475013 -0.35484182835 -0.35463124514
          -0.35536962748 -0.35544461012 -0.35505440831 -0.35567852855 -0.35504817963 -0.35526093841
          -0.35507282615 -0.35570555925 -0.35548818111 -0.35507571697 -0.35466951132 -0.38998064399
          -0.39033165574 -0.39000055194 -0.3904568553 -0.39024764299 -0.39098471403 -0.39105966687
          -0.3906673789 -0.39129599929 -0.39066213369 -0.39087313414 -0.39068284631 -0.39131858945
          -0.39109644294 -0.39068570733 -0.39027944207 -0.42605850101 -0.42640504241 -0.42607450485
          -0.42653030157 -0.42632263899 -0.4270581007 -0.42713353038 -0.42673897743 -0.42737203836
          -0.42673504353 -0.42694446445 -0.42675203085 -0.42739075422 -0.42716383934 -0.42675429583
          -0.42634820938 -0.46251523495 -0.46285796165 -0.46252816916 -0.46298322082 -0.46277669072
          -0.46351119876 -0.46358713508 -0.46319061518 -0.46382778883 -0.46318727732 -0.46339526772
          -0.46320110559 -0.46384263039 -0.46361163259 -0.46320337057 -0.46279710531 -0.49927929044
          -0.49961867929 -0.49928921461 -0.49974405766 -0.49953857064 -0.50027233362 -0.50034838915
          -0.49995017052 -0.50059092045 -0.49994757771 -0.50015455484 -0.49995833635 -0.50060278177
          -0.50036776066 -0.49996051192 -0.49955448508 -0.5362868309 -0.53662359715 -0.53629434109
          -0.53674870729 -0.53654426336 -0.5372774601 -0.53735387325 -0.53695416451 -0.53759837151
          -0.53695213795 -0.53715795279 -0.53696036339 -0.5376072526 -0.53736871481 -0.53696197271
          -0.53655582666 -0.57348167896 -0.57381618023 -0.57348698378 -0.57394140959 -0.5737375617
          -0.57447034121 -0.57454711199 -0.57414591312 -0.57479321957 -0.5741443634 -0.5743495822
          -0.57415044308 -0.57479977608 -0.57455819845 -0.57415187359 -0.57374590635 -0.61081492901
          -0.6111472249 -0.61081850529 -0.61127275229 -0.61106902361 -0.61180216074 -0.61187899113
          -0.61147642136 -0.61212623119 -0.61147558689 -0.61167985201 -0.61147964001 -0.61213099957
          -0.61188679934 -0.61148071289 -0.61107462645 -0.64824420214 -0.6485748291 -0.64824616909
          -0.64870035648 -0.64849710464 -0.64923036098 -0.64930742979 -0.64890390635 -0.64955610037
          -0.64890307188 -0.64910697937 -0.64890563488 -0.649559021 -0.649312675 -0.64890664816
          -0.6485004425 -0.68573480844 -0.68606466055 -0.68573600054 -0.68619006872 -0.6859869957
          -0.68672078848 -0.68679785728 -0.68639320135 -0.68704748154 -0.68639296293 -0.68659639359
          -0.68639445305 -0.68704950809 -0.68680089712 -0.6863951683 -0.68598878384 -0.72326022387
          -0.72358930111 -0.72326087952 -0.72371470928 -0.72351181507 -0.72424584627 -0.72432303429
          -0.7239176631 -0.7245734334 -0.72391778231 -0.72412085533 -0.72391819954 -0.72457438707
          -0.72432458401 -0.72391867638 -0.72351235151 -0.76080048084 -0.76112908125 -0.76080042124
          -0.76125454903 -0.7610514164 -0.76178574562 -0.76186317205 -0.76145738363 -0.7621139884
          -0.76145756245 -0.76166051626 -0.76145756245 -0.76211410761 -0.7618637681 -0.76145768166
          -0.76105165482 -0.79834377766 -0.79867225885 -0.79834365845 -0.79879748821 -0.79859477282
          -0.79932880402 -0.79940652847 -0.79900050163 -0.79965734482 -0.79900062084 -0.79920345545
          -0.79900062084 -0.79965728521 -0.79940658808 -0.79900074005 -0.79859471321 -0.088016487658
          -0.092888243496 -0.088073000312 -0.094703830779 -0.091714970767 -0.10230119526 -0.10340967029
          -0.097634293139 -0.10695129633 -0.097623951733 -0.10055690259 -0.097669355571 -0.10702628642
          -0.10353812575 -0.097691960633 -0.091810412705 -0.089145027101 -0.09067530185 -0.095635414124
          -0.082651875913 -0.086655929685 -0.095668323338 -0.090697281063 -0.12580110133 -0.12615942955
          -0.12574918568 -0.15531156957 -0.15564349294 -0.15524935722 -0.12632600963 -0.15581478179
          -0.12614940107 -0.15565411747 -0.12687940896 -0.12704738975 -0.12655210495 -0.15635597706
          -0.15650735795 -0.15602350235 -0.1272277087 -0.15669980645 -0.12653207779 -0.15600958467
          -0.1267401129 -0.15621829033 -0.12659473717 -0.15606667101 -0.12716570497 -0.15664361417
          -0.12694853544 -0.15641477704 -0.12659156322 -0.156069085 -0.12606494129 -0.15555523336
          -0.18599615991 -0.18633326888 -0.1859421134 -0.18649993837 -0.18633079529 -0.18704432249
          -0.18718807399 -0.18671046197 -0.18738901615 -0.1866979897 -0.18690831959 -0.18674738705
          -0.18734070659 -0.18710909784 -0.18675138056 -0.18624348938 -0.21775814891 -0.21809446812
          -0.21771004796 -0.21825689077 -0.21808353066 -0.21880140901 -0.21893765032 -0.21846728027
          -0.21914535761 -0.21845626831 -0.21866586804 -0.21850013733 -0.21910195053 -0.21886748075
          -0.21850335598 -0.21800653636 -0.25046625733 -0.25080302358 -0.25042426586 -0.25096157193
          -0.25078377128 -0.25150641799 -0.25163570046 -0.25117143989 -0.25184959173 -0.25116190314
          -0.25137192011 -0.25120016932 -0.25181189179 -0.25157436728 -0.25120359659 -0.2507160306
          -0.28400608897 -0.28434285522 -0.2839692831 -0.28449782729 -0.28431585431 -0.28504288197
          -0.28516554832 -0.28470763564 -0.28538557887 -0.28469920158 -0.28490903974 -0.28473240137
          -0.28535279632 -0.28511244059 -0.28473541141 -0.28425687551 -0.31826874614 -0.31860566139
          -0.31823700666 -0.31875705719 -0.31857147813 -0.3193025291 -0.31941899657 -0.31896662712
          -0.31964433193 -0.31895941496 -0.31916928291 -0.31898796558 -0.31961637735 -0.31937351823
          -0.31899094582 -0.31852042675 -0.35315388441 -0.35349094868 -0.3531268537 -0.35363900661
          -0.3534501493 -0.35418471694 -0.35429561138 -0.35384830832 -0.35452592373 -0.35384261608
          -0.35405224562 -0.35386666656 -0.35450199246 -0.35425707698 -0.35386914015 -0.35340631008
          -0.38856881857 -0.38890612125 -0.388546139 -0.38905122876 -0.38885906339 -0.38959702849
          -0.38970297575 -0.38926061988 -0.38993760943 -0.38925564289 -0.38946524262 -0.38927564025
          -0.3899179399 -0.38967102766 -0.38927811384 -0.38882231712 -0.4244286716 -0.4247661531
          -0.42440983653 -0.42490875721 -0.42471346259 -0.42545473576 -0.42555582523 -0.4251177907
          -0.42579498887 -0.42511364818 -0.42532330751 -0.42513012886 -0.425778687 -0.42552995682
          -0.42513263226 -0.42468309402 -0.46065554023 -0.46099314094 -0.46064025164 -0.46113309264
          -0.46093544364 -0.46167963743 -0.4617767036 -0.46134236455 -0.46201956272 -0.46133905649
          -0.46154865623 -0.46135213971 -0.4620064795 -0.46175596118 -0.46135437489 -0.4609105289
          -0.49717873335 -0.49751681089 -0.49716672301 -0.49765449762 -0.49745443463 -0.49820134044
          -0.49829462171 -0.49786350131 -0.49854075909 -0.49786120653 -0.49807077646 -0.49787133932
          -0.49853059649 -0.49827840924 -0.49787327647 -0.49743449688 -0.53393572569 -0.53427386284
          -0.53392654657 -0.53440982103 -0.53420746326 -0.53495699167 -0.53504693508 -0.53461879492
          -0.53529638052 -0.53461688757 -0.53482675552 -0.53462463617 -0.53528851271 -0.53503465652
          -0.5346263051 -0.53419196606 -0.57087081671 -0.57120895386 -0.57086384296 -0.57134342194
          -0.57113909721 -0.57189100981 -0.57197862864 -0.57155275345 -0.57223069668 -0.57155138254
          -0.57176119089 -0.57155692577 -0.57222485542 -0.57196968794 -0.57155847549 -0.57112759352
          -0.60793626308 -0.6082752347 -0.60793161392 -0.60840839148 -0.60820221901 -0.608956635
          -0.60904192924 -0.60861760378 -0.60929608345 -0.60861688852 -0.60882681608 -0.60862052441
          -0.60929244757 -0.60903578997 -0.6086217761 -0.60819399357 -0.64509350061 -0.64543247223
          -0.64508998394 -0.64556461573 -0.64535713196 -0.6461134553 -0.64619684219 -0.64577406645
          -0.64645338058 -0.64577370882 -0.64598375559 -0.6457760334 -0.64645081758 -0.64619332552
          -0.64577698708 -0.64535164833 -0.68230891228 -0.68264847994 -0.68230712414 -0.68277972937
          -0.68257111311 -0.68332898617 -0.68341124058 -0.68298947811 -0.68366897106 -0.68298918009
          -0.68319928646 -0.68299037218 -0.68366754055 -0.68340903521 -0.68299120665 -0.68256771564
          -0.71955770254 -0.71989732981 -0.71955668926 -0.72002804279 -0.71981877089 -0.72057801485
          -0.72065919638 -0.72023802996 -0.72091817856 -0.72023785114 -0.72044825554 -0.72023832798
          -0.7209174633 -0.72065812349 -0.72023886442 -0.71981704235 -0.75682079792 -0.75716114044
          -0.75682061911 -0.75729137659 -0.75708132982 -0.75784170628 -0.75792253017 -0.75750166178
          -0.7581821084 -0.75750142336 -0.75771188736 -0.75750160217 -0.7581820488 -0.75792223215
          -0.7575019002 -0.75708067417 -0.79408794641 -0.79442840815 -0.79408788681 -0.79455840588
          -0.79434794188 -0.79510903358 -0.79518961906 -0.79476863146 -0.79544949532 -0.79476869106
          -0.79497921467 -0.79476869106 -0.79544955492 -0.79518961906 -0.79476875067 -0.79434794188
          -0.08797224611 -0.092757761478 -0.087893851101 -0.094616442919 -0.091701865196 -0.10221522301
          -0.10342667997 -0.09753729403 -0.10692434013 -0.097513854504 -0.10040847957 -0.097573079169
          -0.1068437025 -0.10329993814 -0.097564391792 -0.091601856053 -0.089117594063 -0.09068723768
          -0.095648996532 -0.082630589604 -0.086651526392 -0.095593489707 -0.090629935265 -0.045986667275
          -0.04586591199 -0.045694146305 -0.045623868704 -0.045800797641 -0.045806992799 -0.045786950737
          -0.045796167105 -0.045808050781 -0.045980721712 -0.04571224004 -0.045869760215 -0.045645445585
          -0.028454879299 -0.028412405401 -0.028214201331 -0.028102105483 -0.028254184872 -0.028256177902
          -0.028227422386 -0.028247075155 -0.028258338571 -0.028458435088 -0.028232544661 -0.028426814824
          -0.028118219227 -0.015510197729 -0.015449921601 -0.015254976228 -0.01514758449 -0.015307851136
          -0.015307242982 -0.015281748958 -0.015301348642 -0.01531225536 -0.015513410792 -0.015270456672
          -0.015461171046 -0.015160734765 -0.0067270053551 -0.0066718752496 -0.0064843343571 -0.0063785095699
          -0.0065335007384 -0.0065296082757 -0.0065080439672 -0.0065271267667 -0.0065381038003 -0.0067323977128
          -0.0064975055866 -0.0066834799945 -0.0063883876428 -0.0018245961983 -0.0017604538007 -0.0015248309355
          -0.0013960072538 -0.001578668016 -0.001577984076 -0.0015461115399 -0.0015788528835 -0.0015837729443
          -0.0018332912587 -0.0015370743349 -0.001773602562 -0.0014030169696 -3.4693232851e-14 1.4067303095e-12
          -1.3416819739e-12 3.3883212533e-13 -9.7058645843e-13 2.7445000482e-13 -7.7598585652e-14 3.2129855587e-17
          -1.4966793716e-15 0 0 0 1.8513334854e-14
        </DataArray>
        <DataArray type="Float32" Name="uz" format="ascii" RangeMin="-0.068663164973" RangeMax="0.067446574569">
          -0.01402721554 -0.0077272783965 -0.01479681395 -0.0046405312605 0.0063991909847 0.00344952452
          0.0113989776 -0.006825923454 0.0018456152175 0.0029169889167 0.0042047635652 0.021810321137
          0.013583417051 0.015508143231 -0.022235346958 -0.015939680859 -0.0022992116865 -0.0033497456461
          -0.0017627696507 0.011578198522 0.014960833825 0.0050914799795 0.021818844602 -0.0055422512814
          -0.012029559352 -0.022267317399 -0.0002043009008 0.048430938274 0.049160480499 0.05892823264
          0.048034965992 0.048767603934 0.058083321899 0.036951255053 0.037059690803 0.034491978586
          0.034694287926 0.034903079271 0.044333256781 0.047895785421 0.035135537386 0.044141322374
          0.047563396394 0.030392540619 0.0308441706 0.039409264922 0.039434283972 0.028137611225
          0.028653712943 0.056390535086 0.055682346225 0.019895561039 0.020838089287 0.016855334863
          0.017896339297 0.022433951497 0.023167831823 0.061962995678 0.061019733548 0.048803951591
          0.049547221512 0.059697881341 0.03685868904 0.034317605197 0.03469671309 0.044479683042
          0.048210769892 0.029991686344 0.03939884156 0.027680888772 0.057026706636 0.019097799435
          0.01595656015 0.021771326661 0.062838248909 0.049131970853 0.049881212413 0.060383893549
          0.036771778017 0.034157902002 0.03451250121 0.044611718506 0.048485111445 0.029637828469
          0.039384894073 0.027273306623 0.057589612901 0.018387703225 0.015156058595 0.021180788055
          0.063613265753 0.049419037998 0.050176247954 0.060984931886 0.036694779992 0.034016355872
          0.034350268543 0.044728461653 0.048727296293 0.029325442389 0.039372373372 0.026913769543
          0.058086205274 0.017760500312 0.01444964204 0.020659446716 0.064294487238 0.049668423831
          0.050433054566 0.061509843916 0.036626141518 0.033890657127 0.034207686782 0.044830683619
          0.048938315362 0.029052546248 0.039360824972 0.026598412544 0.05851963535 0.017212355509
          0.013831035234 0.020202405751 0.064889706671 0.049883183092 0.050654407591 0.061963234097
          0.036565460265 0.033779945225 0.034083984792 0.044919453561 0.04912084341 0.028816130012
          0.039349671453 0.026324199513 0.058895546943 0.016736939549 0.013294142671 0.019804593176
          0.065404929221 0.050065111369 0.050843253732 0.062350858003 0.036511719227 0.033683165908
          0.033977985382 0.044996164739 0.049277119339 0.02861389704 0.039339851588 0.026088485494
          0.059217941016 0.016329165548 0.01283284463 0.019462045282 0.06584598124 0.050217092037
          0.051001895219 0.062677122653 0.036465063691 0.033598955721 0.033888034523 0.045061819255
          0.049409270287 0.028443589807 0.03933050856 0.025887997821 0.059490993619 0.015984386206
          0.012441580184 0.019170401618 0.06621863693 0.050341445953 0.051132895052 0.062947392464