<VTKFile type="UnstructuredGrid" version="1.0" byte_order="LittleEndian" header_type="UInt64">
  <UnstructuredGrid>
    <Piece NumberOfPoints="791" NumberOfCells="973">
      <PointData>
        <DataArray type="Float32" Name="ux" format="ascii" RangeMin="-1.1089669466" RangeMax="1.022636652">
          0.37716633081 0.41945892572 0.3443210423 0.37173467875 0.38018044829 0.33839035034
          0.40621960163 0.45918750763 0.50290620327 0.51877361536 0.4783026576 0.48492541909
          0.45373547077 0.50780886412 0.29188776016 0.31394007802 0.29742202163 0.31592896581
          0.43091732264 0.50072717667 0.4196420908 0.48553073406 0.46575552225 0.2675319016
          0.28937247396 0.27022394538 0.4317471087 0.28032794595 0.34769582748 0.37491226196
          0.29010266066 0.35547155142 0.38882440329 0.26349672675 0.27382266521 0.20060972869
          0.21220564842 0.33919170499 0.43430656195 0.3957298398 0.34384804964 0.43740668893
          0.40178784728 0.35491114855 0.3547976017 0.32219725847 0.32854348421 0.25909850001
          0.26941809058 0.46986210346 0.4811091125 0.27032026649 0.27711448073 0.19694660604
          0.21244725585 0.16943563521 0.18806435168 0.44846838713 0.4615457356 0.20519550145
          0.25693002343 0.27280440927 0.19212372601 0.14478863776 0.25677061081 0.32948097587
          0.29554900527 0.27490654588 0.23859332502 0.19254432619 0.35069704056 0.20283690095
          0.14105051756 0.12081092596 0.3264863193 0.12096715719 0.14394403994 0.14846090972
          0.10741516948 0.093088038266 0.13623388112 0.18757648766 0.16125790775 0.14571739733
          0.13023433089 0.10424417257 0.19383299351 0.10387567431 0.075360901654 0.073711074889
          0.17808023095 0.0038353630807 -0.0039095282555 -0.013712397777 0.0062014018185 0.014387324452
          0.0055110463873 0.0062940204516 -0.0017603159649 0.0092525724322 0.0041190981865 0.003795688739
          -0.0067683206871 0.0018764394335 -0.00025374352117 0.0093588260934 -0.018665615469 -0.24098481238
          -0.2510844171 -0.258934021 -0.23721462488 -0.22394123673 -0.2407592684 -0.24613170326
          -0.24978591502 -0.24209465086 -0.24362567067 -0.23785549402 -0.25563940406 -0.24335324764
          -0.2373842597 -0.22661726177 -0.26000520587 -0.45986527205 -0.4818380177 -0.48394289613
          -0.46571773291 -0.44685679674 -0.48874241114 -0.50990885496 -0.49888464808 -0.49378991127
          -0.48154395819 -0.47132346034 -0.51885479689 -0.4770590961 -0.4619513154 -0.45001024008
          -0.51132035255 -0.6058536768 -0.65714454651 -0.65950769186 -0.61308205128 -0.57796406746
          -0.6722971797 -0.72777229548 -0.6969435811 -0.68453729153 -0.65076303482 -0.62026822567
          -0.73895210028 -0.63006293774 -0.5900515914 -0.57360720634 -0.71434438229 -0.6601344347
          -0.68272250891 -0.67065894604 -0.67325413227 -0.66392827034 -0.70234060287 -0.72835665941
          -0.70752370358 -0.70652413368 -0.68574392796 -0.67824852467 -0.7293228507 -0.67901861668
          -0.66405528784 -0.66428488493 -0.70516455173 -0.54045426846 -0.51118898392 -0.49177899957
          -0.55374604464 -0.58446002007 -0.51942229271 -0.4939276576 -0.50039678812 -0.5133882165
          -0.52472138405 -0.55054348707 -0.47670909762 -0.53602814674 -0.56707900763 -0.59279972315
          -0.46802896261 -0.18000844121 -0.14167559147 -0.12546345592 -0.18487468362 -0.22255922854
          -0.15052653849 -0.11797334254 -0.12501886487 -0.14682383835 -0.15939003229 -0.18233262002
          -0.09378823638 -0.17149206996 -0.19718153775 -0.22157201171 -0.093490794301 0.16803254187
          0.21982464194 0.23519396782 0.16595508158 0.12110172212 0.21875298023 0.27235206962
          0.25124272704 0.22633963823 0.20303280652 0.16808728874 0.29494214058 0.17688950896
          0.13139744103 0.11164458841 0.28379794955 0.44567593932 0.501947999 0.51935005188
          0.43318995833 0.3844563365 0.50096726418 0.59748440981 0.54866427183 0.52329856157
          0.48369517922 0.43160483241 0.62426620722 0.43862622976 0.37657758594 0.35633045435
          0.58786892891 0.66876846552 0.7182995677 0.73323458433 0.65565013885 0.61312091351
          0.70739370584 0.79552310705 0.75742477179 0.71638733149 0.69772928953 0.64630949497
          0.82355332375 0.64256680012 0.59501904249 0.58269584179 0.79493665695 0.72635060549
          0.75780493021 0.76406902075 0.7256976366 0.70228010416 0.7535277009 0.80115962029
          0.78186839819 0.75868231058 0.74927949905 0.71964091063 0.82015991211 0.71562772989
          0.69145840406 0.6903860569 0.80044382811 0.60418176651 0.61398237944 0.60954499245
          0.60911399126 0.60531705618 0.61240750551 0.62336975336 0.62044900656 0.60927277803
          0.61000591516 0.61101293564 0.63423711061 0.60334455967 0.60449969769 0.60584402084
          0.62355351448 0.2674780786 0.26540213823 0.26517575979 0.26609751582 0.27206039429
          0.25937598944 0.2691295445 0.26705667377 0.25727072358 0.26324027777 0.26095959544
          0.27138617635 0.25467136502 0.26051923633 0.27292436361 0.26789733768 -0.17543168366
          -0.16828364134 -0.16548544168 -0.1800789088 -0.18260531127 -0.16756400466 -0.1471465677
          -0.1553491205 -0.1637044996 -0.17145164311 -0.18051663041 -0.14119166136 -0.18440832198
          -0.19530038536 -0.19080340862 -0.15090318024 -0.62379771471 -0.60091209412 -0.59273910522
          -0.62759947777 -0.64564329386 -0.59484881163 -0.55472278595 -0.57818204165 -0.58039146662
          -0.60769790411 -0.62838071585 -0.54845458269 -0.62267720699 -0.65236753225 -0.66042566299
          -0.56577783823 -1.0712717772 -1.0487074852 -1.0377757549 -1.0806370974 -1.0968877077
          -1.0573307276 -1.0155825615 -1.0327415466 -1.0485029221 -1.0609973669 -1.0858117342
          -1.0060852766 -1.0853886604 -1.10247612 -1.1089669466 -1.014521718 0.31127944589
          0.33718141913 0.3457633853 0.30121526122 0.27217975259 0.3345861733 0.38204160333
          0.35954222083 0.34300240874 0.32541707158 0.29200407863 0.394459337 0.29537904263
          0.26101052761 0.24947164953 0.37887132168 0.37045663595 0.43266016245 0.38290125132
          0.37089142203 0.32185587287 0.32156708837 0.27668058872 -0.0051959780976 -0.0022321774159
          0.0030765573028 -0.48304355145 -0.46574988961 -0.45956075191 -0.0088935540989 -0.48265007138
          -0.0049479529262 -0.50404447317 -0.0072001256049 0.00060500606196 -0.00051608163631 -0.46187916398
          -0.43790391088 -0.45077580214 -0.012353011407 -0.45648232102 -0.0070611056872 -0.47132983804
          -0.013523960486 -0.48214283586 0.011239147745 -0.43327352405 -0.019694367424 -0.4741718173
          -0.014537986368 -0.49030995369 -0.008798356168 -0.50521588326 0.0094304215163 -0.44132864475
          -0.85741430521 -0.82935833931 -0.80980241299 -0.87721472979 -0.91312271357 -0.83562809229
          -0.78939515352 -0.81174904108 -0.81938636303 -0.84658831358 -0.88127726316 -0.77586966753
          -0.86599051952 -0.91364204884 -0.93540287018 -0.78097015619 -0.93410408497 -0.9281155467
          -0.91307663918 -0.95600152016 -0.96988284588 -0.93527936935 -0.9047845602 -0.91899394989
          -0.91755545139 -0.94172376394 -0.96418893337 -0.90489864349 -0.95330327749 -0.98533982038
          -0.99039721489 -0.90415716171 -0.7579049468 -0.77259713411 -0.76725274324 -0.77008783817
          -0.76048719883 -0.77904164791 -0.77808743715 -0.78118282557 -0.77896863222 -0.77793449163
          -0.77853089571 -0.78241509199 -0.7817569375 -0.77939236164 -0.7762542367 -0.78194278479
          -0.47014066577 -0.48482599854 -0.48904788494 -0.47340282798 -0.46421334147 -0.48871222138
          -0.49602934718 -0.49467393756 -0.48952239752 -0.48600763083 -0.47777479887 -0.49921548367
          -0.48308154941 -0.4749456048 -0.47261798382 -0.49736654758 -0.15500022471 -0.16332024336
          -0.16339056194 -0.15966084599 -0.15592478216 -0.16815871 -0.17347185314 -0.17035719752
          -0.16891796887 -0.16448073089 -0.1638032347 -0.17809386551 -0.1638995558 -0.16029146314
          -0.15626680851 -0.17362938821 0.23046000302 0.1826210022 0.16089318693 0.24361737072
          0.28908535838 0.1763651818 0.10028868169 0.13801543415 0.1553683728 0.19778202474
          0.24015855789 0.078452959657 0.22397133708 0.28635391593 0.31137287617 0.10081270337
          0.5775603652 0.48965394497 0.45170193911 0.60256743431 0.68438577652 0.49125364423
          0.3599639833 0.4227796495 0.45559713244 0.52472114563 0.60344469547 0.32482028008
          0.57820695639 0.68345272541 0.72876089811 0.3580313921 0.73077070713 0.58709174395
          0.53351098299 0.76590019464 0.89460408688 0.5904122591 0.39336380363 0.48589870334
          0.53586858511 0.63562566042 0.76174777746 0.34235084057 0.72233271599 0.88593101501
          0.95597362518 0.38980701566 0.69917553663 0.49917167425 0.43365839124 0.73955494165
          0.91383183002 0.49773266912 0.2174012959 0.35428601503 0.42525458336 0.56855040789
          0.73664373159 0.14065696299 0.68390721083 0.8995693326 0.99397075176 0.22051484883
          0.48296284676 0.269944489 0.19837217033 0.5248991251 0.71261501312 0.26797628403
          -0.028824342415 0.11382705718 0.19254621863 0.33721736073 0.52222627401 -0.10994613171
          0.47591742873 0.70787185431 0.80123317242 -0.024394219741 0.14897935092 -0.0088439611718
          -0.05795262754 0.17804536223 0.31988328695 -0.013665196486 -0.2270373255 -0.12428130209
          -0.064752705395 0.037771303207 0.17545978725 -0.28808969259 0.14097093046 0.31549367309
          0.38793951273 -0.22578625381 -0.1924187988 -0.25536596775 -0.26997172832 -0.18561285734
          -0.13151212037 -0.25735074282 -0.34922078252 -0.30429649353 -0.27785718441 -0.24102969468
          -0.18388557434 -0.37315440178 -0.19734789431 -0.13127462566 -0.10522834957 -0.34071260691
          -0.43694067001 -0.43054172397 -0.42149594426 -0.44781881571 -0.45314136147 -0.4333114624
          -0.42328453064 -0.42700380087 -0.42943459749 -0.43756440282 -0.4471603632 -0.42006334662
          -0.44077831507 -0.45392921567 -0.45928007364 -0.41499006748 -0.51947498322 -0.46288880706
          -0.43383589387 -0.54238826036 -0.59694695473 -0.46810349822 -0.39515244961 -0.42706999183
          -0.4482627213 -0.48637133837 -0.54105186462 -0.37119683623 -0.52222770452 -0.59200942516
          -0.62455362082 -0.38266712427 -0.39701619744 -0.31867849827 -0.28256699443 -0.42601624131
          -0.49909570813 -0.33564135432 -0.21465164423 -0.26644927263 -0.30938136578 -0.35791528225
          -0.43539220095 -0.17513644695 -0.41947317123 -0.51041781902 -0.54531604052 -0.19914227724
          -0.1278436929 -0.028760077432 0.015294359997 -0.15886357427 -0.25137111545 -0.0391882658
          0.10782720894 0.044699955732 -0.0089698238298 -0.072453439236 -0.16765148938 0.15913049877
          -0.15054827929 -0.26540520787 -0.30202269554 0.121111013 0.20057332516 0.32159173489
          0.3683488965 0.16974924505 0.064207725227 0.31400021911 0.49675253034 0.41191896796
          0.35427287221 0.27461594343 0.16020096838 0.54690337181 0.18131439388 0.04864308238
          0.0030268174596 0.49882814288 0.5773499012 0.70607089996 0.74741488695 0.54981589317
          0.44096377492 0.70883256197 0.89029657841 0.80344259739 0.74991255999 0.66265052557
          0.55243515968 0.94181382656 0.57826989889 0.43844255805 0.38347601891 0.8902375102
          0.39175653458 0.37540793419 0.41053795815 0.34214857221 0.35205122828 0.29468280077
          0.31430730224 0.35134363174 0.25536930561 0.32998931408 0.2906473577 0.37266144156
          0.2318238467 0.25282919407 0.30020666122 0.4078027606 0.37065520883 0.43648344278
          0.37244942784 0.37569791079 0.32282832265 0.31432622671 0.27861127257 0.90214782953
          0.97719722986 0.9011554718 0.69993150234 0.7297411561 0.69529134035 0.57323622704
          0.45211485028 0.42083221674 0.25778442621 0.2508662343 0.1828263253 0.44263905287
          0.93039935827 1.022636652 0.92781370878 0.67274397612 0.71569627523 0.6722304821
          0.5236222744 0.36849361658 0.33267968893 0.12970615923 0.11807269603 0.031659476459
          0.35900455713 0.79242032766 0.89348244667 0.79340183735 0.53211587667 0.56909203529
          0.52844929695 0.36695417762 0.20879907906 0.17153011262 -0.041360285133 -0.04482671991
          -0.13637702167 0.20920471847 0.52413624525 0.61053389311 0.53621411324 0.32241463661
          0.35031250119 0.31563970447 0.18649679422 0.059966664761 0.030712354928 -0.13953150809
          -0.12940953672 -0.21185292304 0.067722015083 0.24382403493 0.28788033128 0.24439239502
          0.13078784943 0.14568449557 0.13875684142 0.052983600646 -0.024972515181 -0.041386783123
          -0.1442091018 -0.13165803254 -0.18468745053 -0.0046803499572 3.7629784705e-11 -2.8324381729e-10
          4.1205347467e-10 -5.2374611592e-11 -7.8431809658e-11 2.5592364599e-12 1.3452356633e-12 -1.5195869736e-12
          3.4902685126e-13 0 0 0 -2.4030804473e-13
        </DataArray>
        <DataArray type="Float32" Name="uy" format="ascii" RangeMin="-0.80789631605" RangeMax="0.75005638599">
          -0.13524453342 -0.16064751148 -0.1613702178 -0.26597374678 -0.40221816301 -0.35697600245
          -0.37126633525 -0.13881750405 -0.16408641636 -0.19356253743 -0.27303618193 -0.37088510394
          -0.40376538038 -0.34975764155 -0.15128332376 -0.18429221213 -0.37228283286 -0.33990818262
          -0.1741360724 -0.27447408438 -0.3310469389 -0.17373716831 -0.32062143087 -0.33423340321
          -0.25677505136 -0.16375292838 -0.26947763562 -0.06816726923 0.0072590168566 -0.062751621008
          -0.39051753283 -0.31072041392 -0.38898438215 0.032781805843 -0.28098595142 -0.018568845466
          -0.33138495684 0.15671019256 0.18058127165 0.083800926805 -0.1587959379 -0.13091959059
          -0.22863565385 0.23107291758 -0.086308285594 0.081466801465 -0.23022593558 0.1252014488
          -0.18799211085 0.088814638555 -0.22060033679 0.22381287813 -0.097084179521 0.16780126095
          -0.15051968396 0.071890383959 -0.23689840734 -0.0074506737292 -0.32175561786 0.33557534218
          0.38889533281 0.33451995254 0.40739041567 0.37386083603 0.49727618694 0.50684344769
          0.44082313776 0.55290323496 0.44383487105 0.47544005513 0.43475678563 0.55238080025
          0.50483697653 0.43751055002 0.36864414811 0.63861775398 0.65797507763 0.63129514456
          0.67637073994 0.65439909697 0.7166698575 0.71600729227 0.67739856243 0.75005638599
          0.68589150906 0.70737993717 0.66550123692 0.74901098013 0.72013509274 0.684263587
          0.6375759244 0.71542555094 0.70091569424 0.71047794819 0.69752120972 0.70359861851
          0.69120210409 0.68535274267 0.68663644791 0.6964700222 0.69281172752 0.69251656532
          0.67947876453 0.69694536924 0.68779498339 0.68852007389 0.68970304728 0.50287669897
          0.4895427525 0.50098919868 0.48209229112 0.48723816872 0.47542577982 0.47465768456
          0.4813028872 0.47359535098 0.48104050756 0.47273144126 0.48197051883 0.47160992026
          0.46790546179 0.47130128741 0.49346396327 0.24196828902 0.2261672914 0.24818441272
          0.21669770777 0.22235286236 0.18838068843 0.18445213139 0.2053578198 0.17382717133
          0.20652204752 0.19419768453 0.20567019284 0.17554348707 0.1826530993 0.20283193886
          0.23497760296 -0.047732975334 -0.077569432557 -0.035467162728 -0.093653924763 -0.080208018422
          -0.14759735763 -0.15768188238 -0.11311261356 -0.18946926296 -0.11107324064 -0.13326534629
          -0.10615344346 -0.18558090925 -0.15551444888 -0.11445254087 -0.06000951305 -0.45812493563
          -0.46092736721 -0.44494727254 -0.47010457516 -0.46610432863 -0.49439942837 -0.49853566289
          -0.47301757336 -0.51743710041 -0.47777992487 -0.48356726766 -0.47042953968 -0.5092176199
          -0.49034300447 -0.47253033519 -0.44431012869 -0.77664959431 -0.7352566123 -0.76423752308
          -0.73047691584 -0.75337827206 -0.68476462364 -0.67648458481 -0.70264148712 -0.66662603617
          -0.70908641815 -0.69607770443 -0.69362968206 -0.66368567944 -0.6697524786 -0.70792263746
          -0.72503328323 -0.75890696049 -0.72409933805 -0.76046228409 -0.70763599873 -0.72169357538
          -0.6698179841 -0.65830993652 -0.69295823574 -0.64885979891 -0.68947923183 -0.67538291216
          -0.68761301041 -0.64986264706 -0.65531343222 -0.68023943901 -0.7269924283 -0.49418583512
          -0.45169991255 -0.49795868993 -0.43288445473 -0.45780000091 -0.36689135432 -0.35220491886
          -0.40674889088 -0.32603344321 -0.40800094604 -0.38351032138 -0.40533095598 -0.32802906632
          -0.35874903202 -0.40967273712 -0.46271890402 -0.16941437125 -0.11507953703 -0.17520157993
          -0.08112950623 -0.12187671661 0.027972588316 0.045929908752 -0.045318350196 0.099199414253
          -0.04461402446 -0.0010462527862 -0.053837820888 0.090293005109 0.036845248193 -0.043958112597
          -0.136005193 0.083342604339 0.13506130874 0.076209329069 0.16188313067 0.12630943954
          0.26306325197 0.27754104137 0.19321674109 0.32960313559 0.1990249902 0.23781964183
          0.18898674846 0.31907340884 0.27179849148 0.19596077502 0.11043512821 0.23721826077
          0.25853005052 0.22923494875 0.27032780647 0.25534066558 0.32299733162 0.33559718728
          0.29078766704 0.35986250639 0.28869920969 0.3040150106 0.28594177961 0.34943774343
          0.31538930535 0.28097170591 0.24686542153 0.33271607757 0.33753836155 0.32241922617
          0.34234887362 0.33892983198 0.36032032967 0.36473399401 0.34754890203 0.37045949697
          0.34909933805 0.35384646058 0.34265545011 0.3607955575 0.35043725371 0.34398409724
          0.32226771116 0.34689712524 0.33917176723 0.33837902546 0.34201437235 0.34552675486
          0.33364382386 0.33836829662 0.33571884036 0.33705568314 0.34134784341 0.33325612545
          0.3292106688 0.32677200437 0.32167872787 0.33304780722 0.33246135712 0.14614288509
          0.15557265282 0.14774334431 0.15407064557 0.14686508477 0.17399212718 0.18025439978
          0.16467364132 0.19016247988 0.16268090904 0.16578170657 0.16380083561 0.18464381993
          0.1660836786 0.15278179944 0.15351480246 -0.17734539509 -0.15230856836 -0.17571757734
          -0.1418505013 -0.15682001412 -0.097978845239 -0.091242812574 -0.12517911196 -0.071130871773
          -0.12596422434 -0.11124843359 -0.1226644665 -0.072461023927 -0.096449315548 -0.12934669852
          -0.15914547443 -0.50768685341 -0.49017545581 -0.51093804836 -0.47535839677 -0.48873952031
          -0.4513502717 -0.44888210297 -0.47453758121 -0.42962399125 -0.46636366844 -0.45803964138
          -0.47807595134 -0.43110454082 -0.44660788774 -0.46377775073 -0.4983959198 -0.50408840179
          -0.44002720714 -0.49614143372 -0.42283558846 -0.46078386903 -0.31968873739 -0.2980966568
          -0.37824040651 -0.25802350044 -0.38004857302 -0.34890508652 -0.36873456836 -0.26128509641
          -0.31018006802 -0.38510867953 -0.4458438158 -0.2944419682 -0.27917030454 -0.25725179911
          -0.33489000797 -0.31465882063 -0.25960564613 -0.2931188345 0.12211831659 0.12699261308
          0.13358569145 0.2629891634 0.24121832848 0.25991228223 0.12015463412 0.23128770292
          0.11621817946 0.24135529995 0.12214804441 0.11402161419 0.12397236377 0.19843250513
          0.19028915465 0.21940484643 0.11438574642 0.17765341699 0.12455704808 0.21734690666
          0.12518598139 0.2019778192 0.12316548824 0.21574343741 0.12136414647 0.17491212487
          0.12350839376 0.18121880293 0.11934419721 0.20568737388 0.13044035435 0.24081251025
          0.25900119543 0.21273815632 0.24322877824 0.20221988857 0.23060581088 0.13480137289
          0.1293232739 0.17394843698 0.099338904023 0.17569153011 0.14789454639 0.16625970602
          0.090368896723 0.11085698009 0.17095991969 0.20715242624 0.040315702558 0.014161809348
          0.026216346771 0.01137407124 0.031541991979 -0.020247597247 -0.021708637476 -0.0024670418352
          -0.042937714607 -0.0018104063347 -0.014661462978 -0.0070585296489 -0.049237322062 -0.032403673977
          0.00036828505108 0.0097350813448 -0.12376511842 -0.12363855541 -0.13348284364 -0.12042013556
          -0.11326602846 -0.12133892626 -0.11475835741 -0.11981021613 -0.12116186321 -0.12127590925
          -0.12061708421 -0.11182263494 -0.12484680861 -0.1207138598 -0.1126557067 -0.12683196366
          -0.096662402153 -0.092294640839 -0.10136815906 -0.084043242037 -0.080382823944 -0.088924221694
          -0.088686473668 -0.093208730221 -0.082918144763 -0.087723873556 -0.085065416992 -0.09306127578
          -0.084136992693 -0.082603856921 -0.080317921937 -0.099477224052 0.029027890414 0.036115366966
          0.025936085731 0.038036759943 0.033069591969 0.047234833241 0.043580040336 0.04288212955
          0.048348058015 0.043823152781 0.04581964016 0.040750674903 0.04892173782 0.047345686704
          0.038101885468 0.030478747562 -0.051890797913 0.0068953223526 -0.0490950495 0.025405375287
          -0.012589599006 0.12008748949 0.13199140131 0.069725826383 0.17218087614 0.064871683717
          0.095241360366 0.062502086163 0.17128032446 0.12765547633 0.054301977158 -0.0080329719931
          -0.24263845384 -0.14150232077 -0.23561957479 -0.106737867 -0.17137895525 0.049318641424
          0.068582162261 -0.044971056283 0.14090517163 -0.045630052686 0.017414404079 -0.043944753706
          0.14864191413 0.079770088196 -0.043771218508 -0.15835216641 -0.38139271736 -0.22762845457
          -0.36858445406 -0.17236974835 -0.27039566636 0.054543156177 0.076734676957 -0.085238821805
          0.1886716038 -0.084663838148 0.0084301000461 -0.089582130313 0.20462206006 0.10497008264
          -0.078344196081 -0.25558483601 -0.50656312704 -0.30413660407 -0.50670933723 -0.21794529259
          -0.34351539612 0.099772453308 0.13835199177 -0.10406403989 0.29767343402 -0.09541875869
          0.03511993587 -0.11089675874 0.30871388316 0.16463208199 -0.084770351648 -0.35530644655
          -0.53384685516 -0.31844517589 -0.53110259771 -0.2300888896 -0.36618572474 0.11732512712
          0.1595736295 -0.10282405466 0.33242553473 -0.096978083253 0.043630544096 -0.10502811521
          0.34472900629 0.18560738862 -0.084282644093 -0.36475118995 -0.39428278804 -0.22795990109
          -0.39024847746 -0.16711835563 -0.27128565311 0.10453046113 0.13825814426 -0.062392279506
          0.26427739859 -0.061522457749 0.043851505965 -0.060145381838 0.27340716124 0.15389765799
          -0.058037180454 -0.26391139627 -0.088212870061 -0.035474020988 -0.095703795552 -0.0068132234737
          -0.041130825877 0.099060446024 0.11611416936 0.025068435818 0.17211771011 0.028776545078
          0.074685022235 0.024021890014 0.17122299969 0.12087285519 0.036575146019 -0.055582985282
          0.17620532215 0.15998986363 0.16471481323 0.1646143198 0.17628912628 0.15385815501
          0.15410710871 0.15269459784 0.1519702822 0.15739987791 0.15870906413 0.14771954715
          0.14901447296 0.14946261048 0.16303804517 0.14923284948 0.33280846477 0.26052391529
          0.31682282686 0.24705460668 0.29365736246 0.14983139932 0.1386577934 0.20176379383
          0.097467184067 0.20800942183 0.172600016 0.19462880492 0.090563647449 0.12703852355
          0.20767557621 0.25733432174 0.2861994803 0.18994058669 0.27227202058 0.16419668496
          0.2256822437 0.0095674293116 -0.015821898356 0.097553834319 -0.084901757538 0.10290438682
          0.046490170062 0.093871831894 -0.082798458636 -0.013451091945 0.10744707286 0.19850379229
          0.16527618468 0.048533573747 0.15710090101 0.01634263806 0.08971323818 -0.17166146636
          -0.20255418122 -0.06338108331 -0.28595596552 -0.061335224658 -0.12508657575 -0.066241629422
          -0.28124406934 -0.18874102831 -0.045426309109 0.068044580519 0.14587141573 0.023218091577
          0.14297433197 -0.022968508303 0.052989181131 -0.22956077754 -0.26266822219 -0.10120671242
          -0.36345154047 -0.10234945267 -0.17904956639 -0.10035083443 -0.36435672641 -0.25687137246
          -0.099334537983 0.048536222428 0.11731058359 -0.014458997175 0.114470236 -0.060150273144
          0.021888146177 -0.27527415752 -0.30787622929 -0.14518541098 -0.40678697824 -0.14367984235
          -0.22463597357 -0.1486260891 -0.40854400396 -0.30726116896 -0.14312620461 0.014148851857
          -0.046737875789 -0.030509529635 -0.045413885266 -0.023538740352 -0.033179584891 -0.012378296815
          -0.020512901247 -0.021534757689 -0.013287108392 -0.018052563071 -0.0087610008195 -0.024247989058
          5.8474506659e-05 0.0036610334646 -0.012569226325 -0.035726211965 -0.17169693112 -0.17636804283
          -0.17171163857 -0.16857732832 -0.17087623477 -0.16646768153 -0.16890789568 -0.52386248112
          -0.28696680069 -0.053768143058 0.08877209574 -0.28846895695 -0.6688066721 -0.28638792038
          0.086866647005 -0.28523734212 -0.056696265936 -0.51429539919 -0.28616726398 -0.66082811356
          -0.63236415386 -0.3396936655 -0.044111963362 0.13415390253 -0.33640637994 -0.80789631605
          -0.3354421556 0.13336858153 -0.32942575216 -0.040396951139 -0.60980254412 -0.32021170855
          -0.7985072732 -0.52023255825 -0.21236513555 0.090213671327 0.27822041512 -0.21454229951
          -0.70733398199 -0.2104934454 0.27847367525 -0.20992283523 0.096833132207 -0.50256752968
          -0.2000759542 -0.69786697626 -0.26802754402 -0.035342734307 0.20408847928 0.35830020905
          -0.029392905533 -0.40726405382 -0.024932185188 0.35618239641 -0.024373492226 0.21098570526
          -0.25593626499 -0.025243211538 -0.40050977468 -0.065985076129 0.060175064951 0.19623619318
          0.28135582805 0.064575001597 -0.15058732033 0.065150186419 0.2831787765 0.066914923489
          0.19707596302 -0.070648811758 0.064274102449 -0.15127186477 -1.602675978e-11 -7.8788024716e-11
          -3.2589940946e-13 -1.2835700385e-11 -3.760942599e-11 2.0880177795e-11 -9.390889108e-12 1.7696593973e-12
          9.0717038916e-13 0 0 0 8.4125068023e-13
        </DataArray>
        <DataArray type="Float32" Name="uz" format="ascii" RangeMin="-0.49062633514" RangeMax="0.69172638655">
          0.089929424226 0.10097019374 0.11144778877 0.10424469411 0.13328428566 0.13555821776
          0.11222025007 0.089237883687 0.10267782211 0.07824793458 0.090314544737 0.072350457311
          0.11548162252 0.096800714731 0.1111331284 0.096085138619 0.15859644115 0.13199083507
          0.11104337126 0.086050838232 0.088066004217 0.10320142657 0.062283746898 0.15948580205
          0.12179178745 0.12621836364 0.093163080513 0.089852310717 -0.016519611701 -0.035023119301
          0.096853606403 0.021474149078 -0.014004169963 0.090754710138 0.12060746551 0.18251881003
          0.18583492935 -0.039125841111 -0.16584651172 -0.093512535095 0.030653741211 -0.065455332398
          -0.027355616912 -0.079351425171 0.012654006481 0.0015933574177 0.053488787264 0.074104741216
          0.1170437634 -0.18934446573 -0.10546114296 0.038156613708 0.10004078597 0.14543008804
          0.17591774464 0.20142991841 0.21300569177 -0.14134149253 -0.089493304491 0.085527844727
          -0.021183423698 -0.023925118148 0.068282976747 0.15768219531 -0.058874923736 -0.17246676981
          -0.09547111392 -0.11069180816 -0.012986009009 0.043657667935 -0.1779307276 -0.003872346133
          0.10268510878 0.16347430646 -0.12518985569 0.072721734643 0.0058972151019 0.023884063587
          0.038508154452 0.089375711977 -0.047890502959 -0.099177382886 -0.045401971787 -0.08703994751
          -0.01009886153 0.0057841059752 -0.079500287771 -0.040665321052 0.021626044065 0.070887543261
          -0.034520227462 0.088602349162 0.059761796147 0.12191084772 0.01784507744 0.022143349051
          -0.026992449537 -0.0088076777756 0.027770871297 -0.062004595995 0.008173677139 -0.034769296646
          0.052822448313 -0.092398531735 -0.085386864841 -0.040553960949 0.10486194491 0.096909940243
          0.098114013672 0.18168233335 0.00015038625861 -0.017359456047 -0.023004133254 0.045841351151
          0.08178254962 -0.070498593152 0.016526440158 -0.073432922363 0.15241719782 -0.15074108541
          -0.17141999304 -0.1186041981 0.20301628113 0.058000564575 0.087191298604 0.16708189249
          -0.03240756318 -0.069835402071 -0.02626240626 0.066483519971 0.090636901557 -0.061297152191
          0.0046101240441 -0.10218698531 0.17249947786 -0.16279476881 -0.20356106758 -0.17071300745
          0.21113622189 -0.034524604678 0.03338245675 0.090910926461 -0.086109213531 -0.15043102205
          -0.020879866555 0.093476504087 0.07328222692 -0.022605061531 -0.02160005644 -0.11455685645
          0.17055545747 -0.13625825942 -0.21060055494 -0.21678076684 0.17087395489 -0.15736575425
          -0.071107156575 -0.060045737773 -0.1478010565 -0.22663573921 -0.02953656204 0.075133815408
          -0.0018737099599 0.015237441286 -0.075389303267 -0.12025092542 0.079568564892 -0.080099292099
          -0.1781296134 -0.23358431458 0.029089532793 -0.26771688461 -0.17459067702 -0.23377972841
          -0.17429788411 -0.24233996868 -0.035153418779 0.015985393897 -0.091850958765 0.048654966056
          -0.11331532896 -0.086800344288 -0.06155346334 0.019600868225 -0.061482317746 -0.16172385216
          -0.15624773502 -0.2988165915 -0.23990668356 -0.35719865561 -0.15120942891 -0.1733661145
          -0.046182449907 -0.072702474892 -0.16926586628 0.041814289987 -0.13041204214 -0.034065008163
          -0.20721764863 0.095485500991 0.066719673574 -0.034572754055 -0.31654939055 -0.25053119659
          -0.24578300118 -0.3594198525 -0.11678884923 -0.093693993986 -0.07090459764 -0.16645339131
          -0.21447893977 -0.013210305944 -0.13046394289 -0.011587544344 -0.30814522505 0.095502540469
          0.11667844653 0.044027768075 -0.38070848584 -0.21995793283 -0.22472237051 -0.32066035271