<VTKFile type="UnstructuredGrid" version="1.0" byte_order="LittleEndian" header_type="UInt64">
  <UnstructuredGrid>
    <Piece NumberOfPoints="791" NumberOfCells="973">
      <PointData>
        <DataArray type="Float32" Name="ux" format="ascii" RangeMin="-0.75356346369" RangeMax="1.1195011064e-11">
          -0.066525161266 -0.072494849563 -0.074801199138 -0.065424725413 -0.066545523703 -0.074731737375
          -0.072560474277 -0.066563300788 -0.071063011885 -0.067622624338 -0.06549911201 -0.071118347347
          -0.066616795957 -0.067682750523 -0.070927083492 -0.067545183003 -0.070947095752 -0.067500449717
          -0.07857529074 -0.070650778711 -0.078661605716 -0.078602552414 -0.078675605357 -0.078415125608
          -0.070472702384 -0.078502163291 -0.064744152129 -0.14571996033 -0.14608475566 -0.14626629651
          -0.11909490824 -0.11948867142 -0.1196443215 -0.14560781419 -0.11901438981 -0.1452498883
          -0.1186402142 -0.14606758952 -0.14652661979 -0.14632561803 -0.11949198693 -0.11994196475
          -0.11973790824 -0.14620110393 -0.11963805556 -0.14594189823 -0.11935859919 -0.14563059807
          -0.11906103045 -0.14669106901 -0.12009264529 -0.14576818049 -0.11922796816 -0.14533606172
          -0.11879459769 -0.14510901272 -0.11853320897 -0.14662387967 -0.12000635266 -0.17344468832
          -0.17381443083 -0.17398315668 -0.1733431071 -0.17298720777 -0.17380219698 -0.17426390946
          -0.1740578711 -0.17393645644 -0.17367601395 -0.17336818576 -0.1744223088 -0.17350260913
          -0.17307759821 -0.17285326123 -0.17434327304 -0.20220217109 -0.20256911218 -0.2027335465
          -0.20210322738 -0.20175264776 -0.20255888999 -0.20302590728 -0.20281627774 -0.20269097388
          -0.20243363082 -0.20212478936 -0.20318411291 -0.20225180686 -0.20183074474 -0.20161616802
          -0.20309720933 -0.23186452687 -0.23223085701 -0.23238956928 -0.23176878691 -0.23142294586
          -0.23222160339 -0.23269319534 -0.23247990012 -0.23235227168 -0.23209699988 -0.23178792
          -0.23284974694 -0.23190847039 -0.23149202764 -0.23128527403 -0.23275569081 -0.2623219192
          -0.26268726587 -0.26284065843 -0.26222902536 -0.26188769937 -0.26267936826 -0.26315507293
          -0.26293876767 -0.26280850172 -0.26255524158 -0.26224595308 -0.26331055164 -0.26236048341
          -0.26194795966 -0.26174885035 -0.26320946217 -0.29347074032 -0.29383510351 -0.2939837873
          -0.2933807373 -0.29304325581 -0.293828547 -0.29430866241 -0.29408892989 -0.29395627975
          -0.29370501637 -0.29339545965 -0.29446265101 -0.29350453615 -0.29309546947 -0.29290345311
          -0.29435521364 -0.32521548867 -0.32557892799 -0.32572332025 -0.32512807846 -0.32479420304
          -0.32557341456 -0.32605719566 -0.32583469152 -0.32570010424 -0.325450629 -0.32514041662
          -0.3262103498 -0.32524451613 -0.32483866811 -0.32465323806 -0.32609680295 -0.35746756196
          -0.357829988 -0.35797011852 -0.35738223791 -0.35705184937 -0.35782557726 -0.3583125174
          -0.35808748007 -0.35795104504 -0.35770329833 -0.35739272833 -0.35846474767 -0.35749197006
          -0.35708963871 -0.35691007972 -0.35834562778 -0.39014574885 -0.39050734043 -0.39064365625
          -0.39006242156 -0.38973554969 -0.39050373435 -0.39099374413 -0.39076629281 -0.39062821865
          -0.39038169384 -0.39007136226 -0.39114460349 -0.39016616344 -0.38976663351 -0.38959261775
          -0.39102059603 -0.42317652702 -0.42353731394 -0.42367017269 -0.42309552431 -0.42277130485
          -0.42353472114 -0.42402729392 -0.42379781604 -0.42365819216 -0.42341303825 -0.42310252786
          -0.42417731881 -0.42319342494 -0.42279648781 -0.42262768745 -0.42404896021 -0.45649412274
          -0.45685386658 -0.4569837153 -0.45641428232 -0.45609310269 -0.45685184002 -0.4573469162
          -0.45711547136 -0.45697453618 -0.456730932 -0.45642006397 -0.45749610662 -0.45650735497
          -0.45611295104 -0.45594868064 -0.45736369491 -0.49003762007 -0.49039688706 -0.49052411318
          -0.4899597466 -0.48964065313 -0.49039551616 -0.49089258909 -0.49065944552 -0.49051722884
          -0.49027499557 -0.48996415734 -0.49104106426 -0.4900482893 -0.48965609074 -0.48949578404
          -0.49090519547 -0.52375501394 -0.52411365509 -0.52423840761 -0.52367848158 -0.52336150408
          -0.52411258221 -0.52461123466 -0.52437698841 -0.52423381805 -0.52399241924 -0.52368158102
          -0.524759233 -0.52376323938 -0.52337288857 -0.52321606874 -0.52462053299 -0.55759996176
          -0.55795782804 -0.55808061361 -0.55752414465 -0.55720901489 -0.5579572916 -0.55845725536
          -0.55822199583 -0.55807757378 -0.55783724785 -0.55752640963 -0.55860501528 -0.55760550499
          -0.55721706152 -0.55706328154 -0.55846363306 -0.5915325284 -0.59188997746 -0.59201139212
          -0.59145778418 -0.5911436677 -0.59188985825 -0.59239119291 -0.59215497971 -0.59200960398
          -0.59177023172 -0.59145927429 -0.59253853559 -0.59153652191 -0.59114897251 -0.59099763632
          -0.59239506721 -0.62552064657 -0.62587797642 -0.62599796057 -0.62544631958 -0.62513363361
          -0.62587785721 -0.62638026476 -0.62614315748 -0.62599724531 -0.62575864792 -0.62544727325
          -0.62652742863 -0.62552303076 -0.62513679266 -0.62498730421 -0.62638235092 -0.65953910351
          -0.65989607573 -0.66001552343 -0.65946537256 -0.65915316343 -0.65989601612 -0.66039937735
          -0.66016161442 -0.66001546383 -0.65977680683 -0.659465909 -0.660546422 -0.65954017639
          -0.65915495157 -0.65900659561 -0.66039991379 -0.69357031584 -0.69392710924 -0.69404625893
          -0.69349676371 -0.69318521023 -0.69392716885 -0.69443064928 -0.69419312477 -0.69404637814
          -0.69380837679 -0.69349718094 -0.69457763433 -0.69357067347 -0.69318580627 -0.6930385828
          -0.69443106651 -0.7276044488 -0.7279613018 -0.72808033228 -0.72753125429 -0.72721987963
          -0.72796142101 -0.72846508026 -0.72822707891 -0.72808039188 -0.72784256935 -0.72753113508
          -0.72861194611 -0.72760474682 -0.72721987963 -0.72707301378 -0.72846496105 -0.084323078394
          -0.088742420077 -0.084664799273 -0.090008556843 -0.087198503315 -0.09698330611 -0.098279826343
          -0.093046426773 -0.10120972991 -0.092783674598 -0.095114804804 -0.093297049403 -0.10091615468
          -0.097477383912 -0.092220537364 -0.088130265474 -0.084760732949 -0.086246304214 -0.090909413993
          -0.078592382371 -0.082320652902 -0.090835250914 -0.086039476097 -0.12040738761 -0.12005268037
          -0.1199452579 -0.14776474237 -0.14738437533 -0.14730611444 -0.12042275816 -0.14775013924
          -0.12069234997 -0.1480474472 -0.1200928092 -0.11971437186 -0.1198271364 -0.1473929286
          -0.14698292315 -0.14713822305 -0.12008497864 -0.14734651148 -0.12015925348 -0.14747546613
          -0.12040432543 -0.14771911502 -0.11947412789 -0.14678008854 -0.12039484084 -0.14768765867
          -0.12061536312 -0.14793625474 -0.12074480206 -0.14807964861 -0.11955919862 -0.14690166712
          -0.17631584406 -0.17594952881 -0.17586286366 -0.17631520331 -0.17660196126 -0.17596265674
          -0.17555724084 -0.17570969462 -0.17591622472 -0.17604404688 -0.17628969252 -0.17535682023
          -0.17625966668 -0.17651163042 -0.17664816976 -0.17547063529 -0.20599649847 -0.20563606918
          -0.2055491209 -0.2060020268 -0.20628806949 -0.20564731956 -0.20523692667 -0.20539686084
          -0.20559300482 -0.2057313472 -0.20597937703 -0.20504629612 -0.20594477654 -0.20620669425
          -0.20634296536 -0.20516344905 -0.23667035997 -0.2363165319 -0.23622761667 -0.23668263853
          -0.23696613312 -0.23632597923 -0.23591315746 -0.23607836664 -0.23626631498 -0.23641237617
          -0.23666279018 -0.23573030531 -0.23662486672 -0.23689483106 -0.23702958226 -0.23584841192
          -0.26821959019 -0.2678720355 -0.26778164506 -0.26823851466 -0.2685200572 -0.26788008213
          -0.26746439934 -0.26763522625 -0.26781478524 -0.26796868443 -0.26822134852 -0.26728919148
          -0.26818013191 -0.26845803857 -0.26859158278 -0.26740851998 -0.30053386092 -0.30019173026
          -0.3000998199 -0.30055862665 -0.30083799362 -0.30019834638 -0.2997803688 -0.29995581508
          -0.30012783408 -0.30028882623 -0.3005438149 -0.29961156845 -0.30049958825 -0.30078476667
          -0.300917238 -0.29973235726 -0.33350881934 -0.33317178488 -0.33307850361 -0.3335390389
          -0.33381685615 -0.33317726851 -0.33275640011 -0.33293679357 -0.33310216665 -0.3332696259
          -0.33352640271 -0.33259433508 -0.33347943425 -0.33377179503 -0.33390328288 -0.33271640539
          -0.36704817414 -0.36671587825 -0.36662146449 -0.36708366871 -0.36735978723 -0.3667203784
          -0.36629745364 -0.36648184061 -0.366640836 -0.36681443453 -0.3670732379 -0.36614131927
          -0.36702370644 -0.36732199788 -0.36745268106 -0.36626425385 -0.4010629952 -0.40073546767
          -0.40063986182 -0.40110313892 -0.40137758851 -0.40073883533 -0.40031403303 -0.40050214529
          -0.4006550014 -0.40083450079 -0.40109437704 -0.40016338229 -0.40104269981 -0.40134683251
          -0.40147653222 -0.40028703213 -0.43547201157 -0.43514856696 -0.43505191803 -0.43551632762
          -0.43578931689 -0.43515124917 -0.43472498655 -0.43491628766 -0.43506374955 -0.43524810672
          -0.43550944328 -0.43457904458 -0.43545547128 -0.43576449156 -0.43589305878 -0.43470385671
          -0.47020110488 -0.46988165379 -0.46978399158 -0.47024941444 -0.47052076459 -0.46988344193
          -0.46945613623 -0.46965011954 -0.46979314089 -0.46998164058 -0.47024393082 -0.4693146646
          -0.47018796206 -0.47050148249 -0.47062951326 -0.46944001317 -0.50518363714 -0.50486719608
          -0.50476890802 -0.50523543358 -0.50550550222 -0.5048686862 -0.5044400692 -0.5046364665
          -0.50477510691 -0.5049675107 -0.50523096323 -0.50430250168 -0.50517332554 -0.50549095869
          -0.50561827421 -0.50442802906 -0.54035907984 -0.54004573822 -0.53994607925 -0.54041367769
          -0.5406832695 -0.54004639387 -0.53961658478 -0.53981542587 -0.5399505496 -0.54014617205
          -0.54041063786 -0.53948223591 -0.54035151005 -0.54067248106 -0.54079979658 -0.53960835934
          -0.57567536831 -0.57536405325 -0.57526397705 -0.57573276758 -0.57600134611 -0.57536458969
          -0.57493418455 -0.57513481379 -0.57526677847 -0.57546508312 -0.575730443 -0.57480239868
          -0.57566988468 -0.57599365711 -0.57612073421 -0.57492846251 -0.61108785868 -0.61077862978
          -0.61067795753 -0.6111471653 -0.61141520739 -0.6107788682 -0.61034780741 -0.61054962873
          -0.61067932844 -0.61087995768 -0.61114579439 -0.61021858454 -0.61108422279 -0.6114102602
          -0.61153692007 -0.61034429073 -0.64656049013 -0.64625251293 -0.64615130424 -0.64662122726
          -0.64688885212 -0.64625251293 -0.64582145214 -0.64602410793 -0.6461519599 -0.64635425806
          -0.64662021399 -0.64569336176 -0.64655792713 -0.64688581228 -0.64701235294 -0.64581942558
          -0.68206530809 -0.68175846338 -0.68165695667 -0.68212729692 -0.68239450455 -0.68175840378
          -0.68132680655 -0.6815302372 -0.68165701628 -0.68186032772 -0.6821269393 -0.68120002747
          -0.68206399679 -0.68239307404 -0.68251949549 -0.68132597208 -0.71758437157 -0.71727818251
          -0.71717631817 -0.71764719486 -0.71791440248 -0.7172780633 -0.71684604883 -0.71704995632
          -0.71717625856 -0.71738010645 -0.71764683723 -0.71671968699 -0.71758401394 -0.71791368723
          -0.71803998947 -0.71684581041 -0.75310724974 -0.75280123949 -0.75269913673 -0.75317007303
          -0.75343722105 -0.75280112028 -0.7523688674 -0.75257283449 -0.75269925594 -0.75290328264
          -0.75317007303 -0.75224298239 -0.75310724974 -0.75343710184 -0.75356346369 -0.75236904621
          -0.084625385702 -0.088691189885 -0.084371857345 -0.090515814722 -0.088067524135 -0.097114063799
          -0.097889848053 -0.092766568065 -0.10132846236 -0.092963628471 -0.095702156425 -0.092546842992
          -0.10150618851 -0.098427660763 -0.093305699527 -0.08739811182 -0.084780819714 -0.086235195398
          -0.090964332223 -0.078591860831 -0.082376413047 -0.090943396091 -0.08614615351 -0.04356507957
          -0.043317034841 -0.043275054544 -0.043546102941 -0.043451599777 -0.043690014631 -0.043456181884
          -0.04367633909 -0.04340685904 -0.043475612998 -0.043164353818 -0.043197307736 -0.043485540897
          -0.026947857812 -0.026808939874 -0.026695841923 -0.026888405904 -0.026789864525 -0.027018517256
          -0.026780694723 -0.027000069618 -0.026754181832 -0.026881419122 -0.026615614071 -0.026717124507
          -0.026849949732 -0.014661293477 -0.014486710541 -0.014392239973 -0.01461332012 -0.014513502829
          -0.014751709066 -0.014511676505 -0.014743392356 -0.014488740824 -0.014616321772 -0.014332627878
          -0.014422576874 -0.014581574127 -0.0063202902675 -0.0061560771428 -0.0060618561693 -0.0062781549059
          -0.0061835544184 -0.0064116553403 -0.0061872969382 -0.0064101116732 -0.0061676716432 -0.0062946239486
          -0.0060222805478 -0.0061157066375 -0.0062547991984 -0.0016172348987 -0.0014101987472 -0.0012977063889
          -0.0015710326843 -0.0014457174111 -0.0017361070495 -0.0014515280491 -0.0017430274747 -0.0014381329529
          -0.0016095462488 -0.0012742911931 -0.0013913437724 -0.0015526741045 2.8932192471e-14 -2.3039507802e-11
          1.1195011064e-11 4.2625947802e-13 7.0462418452e-13 -1.5216669071e-12 2.4817623542e-13 -2.1083322601e-14
          -6.5289204283e-16 0 0 0 -2.7950726924e-14
        </DataArray>
        <DataArray type="Float32" Name="uy" format="ascii" RangeMin="-0.78396397829" RangeMax="2.477913057e-12">
          -0.068472400308 -0.074434921145 -0.076846383512 -0.067366376519 -0.06827917695 -0.076638482511
          -0.074326254427 -0.068429432809 -0.072995439172 -0.069540008903 -0.067373007536 -0.073016196489
          -0.068330153823 -0.069488838315 -0.073187306523 -0.069608569145 -0.072885595262 -0.0694597736
          -0.080645427108 -0.072513476014 -0.080599926412 -0.080705724657 -0.080657199025 -0.080568701029
          -0.07255307585 -0.080778874457 -0.066626280546 -0.15111422539 -0.15154567361 -0.15117101371
          -0.12237166613 -0.12281148881 -0.1224148348 -0.15168343484 -0.12296063453 -0.15143716335
          -0.1227029562 -0.15227609873 -0.15235425532 -0.15193425119 -0.12355129421 -0.1236397326
          -0.12320714444 -0.15260308981 -0.1238777861 -0.15192058682 -0.1231983155 -0.1521704644
          -0.12345424294 -0.1519741267 -0.12325246632 -0.152664572 -0.1239445284 -0.15245297551
          -0.12374901026 -0.15197908878 -0.12326335162 -0.15152749419 -0.12277881801 -0.18101429939
          -0.18144060671 -0.18106256425 -0.18158000708 -0.18133322895 -0.18217466772 -0.18225608766
          -0.18182902038 -0.18250793219 -0.18181677163 -0.18206498027 -0.18186502159 -0.18256127834
          -0.18234211206 -0.18186834455 -0.1814121753 -0.2119602412 -0.21237917244 -0.21200320125
          -0.2125184834 -0.21227519214 -0.21311271191 -0.21319419146 -0.21276453137 -0.2134488523
          -0.21275401115 -0.21299982071 -0.21279634535 -0.21349678934 -0.21327114105 -0.21280024946
          -0.21234461665 -0.24383042753 -0.24424296618 -0.24386800826 -0.24438264966 -0.24414116144
          -0.24497668445 -0.24505867064 -0.24462626874 -0.24531657994 -0.24461701512 -0.24486036599
          -0.24465420842 -0.2453583926 -0.24512624741 -0.24465756118 -0.24420198798 -0.27651444077
          -0.27692103386 -0.27654704452 -0.27706101537 -0.27682122588 -0.27765473723 -0.27773723006
          -0.27730214596 -0.2779982388 -0.27729406953 -0.27753555775 -0.27732634544 -0.27803468704
          -0.27779626846 -0.27732974291 -0.27687418461 -0.30990794301 -0.31030890346 -0.30993580818
          -0.31044900417 -0.31021121144 -0.31104272604 -0.31112578511 -0.31068810821 -0.31138953567
          -0.31068128347 -0.31092071533 -0.31070894003 -0.31142118573 -0.31117704511 -0.31071215868
          -0.31025642157 -0.34391310811 -0.34430888295 -0.34393689036 -0.34444928169 -0.34421312809
          -0.34504291415 -0.34512653947 -0.34468638897 -0.34539246559 -0.34468063712 -0.34491813183
          -0.34470403194 -0.34541961551 -0.34517019987 -0.34470689297 -0.34425118566 -0.37843862176
          -0.37882989645 -0.3784584403 -0.37897002697 -0.3787356019 -0.37956365943 -0.37964731455
          -0.37920540571 -0.37991586328 -0.37920045853 -0.37943643332 -0.37922000885 -0.37993872166
          -0.37968435884 -0.37922289968 -0.37876728177 -0.41339990497 -0.41378691792 -0.41341647506
          -0.41392681003 -0.41369399428 -0.41452029347 -0.41460454464 -0.41416057944 -0.41487509012
          -0.41415685415 -0.41439116001 -0.41417261958 -0.41489395499 -0.41463515162 -0.41417533159
          -0.41372007132 -0.44871994853 -0.44910252094 -0.44873297215 -0.44924288988 -0.44901102781
          -0.44983568788 -0.44992026687 -0.44947493076 -0.4501927495 -0.44947192073 -0.44970458746
          -0.4494844377 -0.4502081573 -0.44994571805 -0.4494869709 -0.44903197885 -0.48432806134
          -0.48470711708 -0.48433822393 -0.4848472476 -0.48461678624 -0.48543998599 -0.4855248332
          -0.48507803679 -0.48579877615 -0.48507559299 -0.48530727625 -0.48508560658 -0.48581108451
          -0.48554491997 -0.48508757353 -0.48463302851 -0.52016216516 -0.52053838968 -0.5201702714
          -0.52067834139 -0.5204487443 -0.52127104998 -0.5213560462 -0.52090781927 -0.52163136005
          -0.52090615034 -0.52113646269 -0.52091348171 -0.52164101601 -0.52137154341 -0.52091556787
          -0.52046132088 -0.55616945028 -0.55654233694 -0.55617487431 -0.55668252707 -0.55645406246
          -0.55727475882 -0.55735999346 -0.55691099167 -0.55763632059 -0.55690968037 -0.55713891983
          -0.55691510439 -0.55764353275 -0.55737179518 -0.55691665411 -0.55646294355 -0.5923024416
          -0.59267318249 -0.5923063159 -0.59281301498 -0.59258538485 -0.59340518713 -0.59349066019
          -0.59304076433 -0.5937680006 -0.59304016829 -0.59326821566 -0.59304362535 -0.593773067
          -0.59349906445 -0.59304493666 -0.59259140491 -0.62852215767 -0.62889128923 -0.62852472067
          -0.62903130054 -0.62880414724 -0.62962317467 -0.62970906496 -0.62925839424 -0.62998747826
          -0.6292579174 -0.62948542833 -0.62926000357 -0.62999051809 -0.62971454859 -0.62926119566
          -0.62880772352 -0.66479766369 -0.66516524553 -0.66479897499 -0.66530525684 -0.66507846117
          -0.66589725018 -0.66598337889 -0.6655318737 -0.66626191139 -0.66553145647 -0.66575860977
          -0.66553258896 -0.66626411676 -0.66598647833 -0.66553360224 -0.66508030891 -0.70110362768
          -0.70147025585 -0.70110410452 -0.70161008835 -0.70138382912 -0.70220220089 -0.70228844881
          -0.70183652639 -0.70256769657 -0.70183640718 -0.70206308365 -0.70183676481 -0.70256853104
          -0.70229005814 -0.70183753967 -0.70138454437 -0.73742240667 -0.7377884388 -0.73742258549
          -0.73792845011 -0.73770231009 -0.73852044344 -0.73860669136 -0.73815464973 -0.73888629675
          -0.73815453053 -0.73838084936 -0.73815464973 -0.73888653517 -0.7386072278 -0.73815476894
          -0.73770225048 -0.77374380827 -0.77410966158 -0.77374368906 -0.77424943447 -0.77402353287
          -0.77484160662 -0.77492797375 -0.77447581291 -0.77520751953 -0.7744756937 -0.77470201254
          -0.7744756341 -0.77520757914 -0.77492815256 -0.77447581291 -0.77402353287 -0.085530608892
          -0.090308248997 -0.085586860776 -0.092088006437 -0.089156262577 -0.09954239428 -0.10062764585
          -0.094962507486 -0.10410480946 -0.094953112304 -0.097830541432 -0.094995386899 -0.10417958349
          -0.10075535625 -0.095018215477 -0.089250743389 -0.086892731488 -0.088388696313 -0.093234293163
          -0.080546982586 -0.084458239377 -0.093265734613 -0.088406160474 -0.12331691384 -0.12362911552
          -0.12326123565 -0.15233781934 -0.15262380242 -0.15227070451 -0.12378038466 -0.15278074145
          -0.12363405526 -0.15264976025 -0.12426137924 -0.12442226708 -0.12397880852 -0.15325178206
          -0.15339648724 -0.15296195447 -0.12456630915 -0.15355409682 -0.12395819277 -0.15294805169
          -0.12413728237 -0.15312926471 -0.12402133644 -0.15300573409 -0.12449921668 -0.15349330008
          -0.12431595474 -0.15329658985 -0.12401827425 -0.15300831199 -0.1235428527 -0.15254335105
          -0.1825491637 -0.18284252286 -0.18249054253 -0.18299545348 -0.1828545481 -0.18347261846
          -0.18360966444 -0.18317970634 -0.18377754092 -0.18316692114 -0.18335083127 -0.18321673572
          -0.18372482061 -0.18352414668 -0.18322139978 -0.18276019394 -0.21385459602 -0.21414937079
          -0.21380253136 -0.21429859102 -0.21415215731 -0.21477875113 -0.21490858495 -0.21448354423
          -0.21508447826 -0.21447254717 -0.21465721726 -0.21451678872 -0.21503715217 -0.21483203769
          -0.21452014148 -0.21406842768 -0.24612037838 -0.24641728401 -0.24607430398 -0.24656298757
          -0.24641078711 -0.24704656005 -0.24716970325 -0.24674910307 -0.24735344946 -0.2467392832
          -0.24692505598 -0.24677796662 -0.24731211364 -0.24710255861 -0.246781528 -0.24633666873
          -0.27922803164 -0.27952703834 -0.2791877389 -0.27966934443 -0.27951213717 -0.28015634418
          -0.28027284145 -0.27985644341 -0.28046411276 -0.27984803915 -0.28003513813 -0.27988126874
          -0.28042808175 -0.2802143693 -0.27988478541 -0.27944716811 -0.31306549907 -0.31336653233
          -0.31303066015 -0.31350591779 -0.31334331632 -0.31399583817 -0.31410682201 -0.31369373202
          -0.31430485845 -0.31368684769 -0.31387493014 -0.31371510029 -0.31427359581 -0.31405630708
          -0.31371816993 -0.31328716874 -0.34752810001 -0.34783101082 -0.34749802947 -0.34796765447
          -0.34780046344 -0.3484607935 -0.34856575727 -0.34815624356 -0.34877073765 -0.34815046191
          -0.34833955765 -0.34817439318 -0.34874412417 -0.34852316976 -0.34817734361 -0.34775215387
          -0.38251870871 -0.38282355666 -0.38249346614 -0.38295760751 -0.38278594613 -0.38345319033
          -0.38355335593 -0.38314694166 -0.38376408815 -0.38314220309 -0.3833322525 -0.38316208124
          -0.38374188542 -0.38351738453 -0.38316455483 -0.38274478912 -0.41794851422 -0.41825482249
          -0.41792756319 -0.41838634014 -0.41821071506 -0.41888424754 -0.41897961497 -0.41857641935
          -0.41919571161 -0.41857257485 -0.41876325011 -0.41858848929 -0.41917732358 -0.41895005107
          -0.4185910821 -0.41817653179 -0.4537357986 -0.45404332876 -0.45371866226 -0.45417281985
          -0.45399385691 -0.45467215776 -0.45476335287 -0.4543632865 -0.45498418808 -0.45436030626
          -0.45455157757 -0.45437291265 -0.45496925712 -0.45473971963 -0.45437526703 -0.45396575332
          -0.48980763555 -0.49011582136 -0.48979392648 -0.49024325609 -0.49006128311 -0.49074441195
          -0.49083170295 -0.49043434858 -0.49105674028 -0.49043208361 -0.49062398076 -0.49044170976
          -0.49104496837 -0.4908131659 -0.49044394493 -0.49003890157 -0.52609831095 -0.52640765905
          -0.52608764172 -0.52653336525 -0.52634853125 -0.52703601122 -0.52711999416 -0.52672487497
          -0.52734869719 -0.52672356367 -0.52691566944 -0.526730299 -0.52733999491 -0.52710598707
          -0.52673244476 -0.52633142471 -0.56255221367 -0.56286293268 -0.56254458427 -0.56298726797
          -0.56279999018 -0.56349116564 -0.56357246637 -0.56317919493 -0.56380426884 -0.56317818165
          -0.56337106228 -0.56318306923 -0.56379795074 -0.56356239319 -0.56318467855 -0.56278711557
          -0.59912395477 -0.59943550825 -0.59911841154 -0.59955829382 -0.59936904907 -0.60006350279
          -0.60014235973 -0.59975105524 -0.6003767848 -0.59975010157 -0.59994357824 -0.59975361824
          -0.60037267208 -0.60013574362 -0.59975498915 -0.59935986996 -0.63577610254 -0.63608825207
          -0.63577252626 -0.63621026278 -0.63601905107 -0.63671630621 -0.63679307699 -0.63640320301
          -0.63702946901 -0.63640284538 -0.63659632206 -0.63640475273 -0.63702684641 -0.63678920269
          -0.63640576601 -0.63601344824 -0.67247974873 -0.67279267311 -0.67247784138 -0.67291384935
          -0.67272162437 -0.67342042923 -0.67349600792 -0.6731069088 -0.67373383045 -0.67310678959
          -0.67330062389 -0.67310792208 -0.67373245955 -0.67349410057 -0.67310863733 -0.6727181673
          -0.70921260118 -0.70952600241 -0.70921188593 -0.70964664221 -0.70945352316 -0.71015375853
          -0.71022856236 -0.70984023809 -0.71046739817 -0.70984005928 -0.710034132 -0.70984047651
          -0.71046686172 -0.71022766829 -0.70984101295 -0.70945173502 -0.74595874548 -0.74627250433
          -0.74595820904 -0.74639254808 -0.74619877338 -0.74690032005 -0.74697458744 -0.74658632278
          -0.74721395969 -0.74658632278 -0.74678039551 -0.74658662081 -0.74721413851 -0.74697428942
          -0.74658685923 -0.74619817734 -0.78270798922 -0.78302204609 -0.78270798922 -0.78314197063
          -0.78294795752 -0.78364980221 -0.78372395039 -0.78333592415 -0.78396397829 -0.78333598375
          -0.78352987766 -0.78333604336 -0.78396391869 -0.78372400999 -0.78333598375 -0.7829477787
          -0.086118884385 -0.09077719599 -0.086035624146 -0.09259030968 -0.089755348861 -0.099988184869
          -0.10117433965 -0.095434315503 -0.10457523912 -0.095410302281 -0.098227255046 -0.095470093191
          -0.10448951274 -0.10103920102 -0.095461547375 -0.089647904038 -0.087001636624 -0.088537216187
          -0.093378581107 -0.080671191216 -0.084594354033 -0.093318149447 -0.088473267853 -0.044799450785
          -0.044715438038 -0.044581331313 -0.044540982693 -0.044651694596 -0.044595766813 -0.044638134539
          -0.044717621058 -0.044658668339 -0.044875569642 -0.044516958296 -0.044719334692 -0.044429179281
          -0.027708485723 -0.027692269534 -0.027523670346 -0.027435399592 -0.027537757531 -0.027493495494
          -0.027511609718 -0.027584299445 -0.027542348951 -0.027773940936 -0.027480795979 -0.027707073838
          -0.027352269739 -0.015098208562 -0.015055121854 -0.014881179668 -0.014792221598 -0.014916576445
          -0.014884367585 -0.014891287312 -0.014949285425 -0.014921315946 -0.015145236626 -0.014852973633
          -0.015066750348 -0.014734594151 -0.0065459166653 -0.0065007428639 -0.0063263163902 -0.0062340372242
          -0.006366034504 -0.0063432315364 -0.0063409474678 -0.006385314744 -0.0063704736531 -0.0065792864189
          -0.0063120825216 -0.0065125492401 -0.0061990693212 -0.0017775461311 -0.0017150929198 -0.0014856747584
          -0.0013667237945 -0.0015381290577 -0.0015307682334 -0.0015064328909 -0.0015530332457 -0.0015434486559
          -0.0017995827366 -0.0014850804582 -0.0017283654306 -0.0013527045958 -1.0699211699e-12 2.477913057e-12
          -4.652187381e-13 -2.6707398771e-13 -4.52737999e-13 7.988959971e-13 1.7045563976e-14 -4.328727318e-14
          2.8575459463e-14 0 0 0 -1.3721220544e-14
        </DataArray>
        <DataArray type="Float32" Name="uz" format="ascii" RangeMin="-0.070008829236" RangeMax="0.067920215428">
          -0.014186315238 -0.0080038765445 -0.014891574159 -0.0045403912663 0.0067194295116 0.0037926943041
          0.011567478068 -0.0071527855471 0.0013308597263 0.0025437085424 0.0040944269858 0.021745469421
          0.013729967177 0.015423937701 -0.022199517116 -0.0158697851 -0.0017741417978 -0.0029811451677
          -0.0021182165947 0.011294290423 0.014985932037 0.004581138026 0.02167760767 -0.0050124237314
          -0.011753305793 -0.022156482562 -0.00020986265736 0.049704954028 0.05007622391 0.059897102416
          0.049304511398 0.04969125241 0.059067688882 0.038092780858 0.038190227002 0.03591350466
          0.036093190312 0.035558998585 0.044635694474 0.04851147905 0.03579364717 0.044468443841
          0.048195444047 0.030842661858 0.031298838556 0.040271505713 0.040296256542 0.029118701816
          0.029619155452 0.056759208441 0.056084834039 0.020650474355 0.021574800834 0.01795611158
          0.018964488059 0.023789303377 0.024489795789 0.062586516142 0.061672881246 0.050081789494
          0.050456218421 0.060653720051 0.038010220975 0.035758599639 0.035350780934 0.04476249963
          0.048812225461 0.030437516049 0.040260843933 0.028674665838 0.057367742062 0.019865952432
          0.0170824714 0.023154320195 0.063436284661 0.050414014608 0.050785057247 0.061329647899
          0.037931501865 0.035615559667 0.035164292902 0.044877570122 0.049074988812 0.030079647899
          0.040246754885 0.028277555481 0.057907380164 0.019165737554 0.016302552074 0.022586796433
          0.064190559089 0.050704929978 0.051076099277 0.061922762543 0.037861797959 0.035488519818
          0.034999657422 0.044979907572 0.049307215959 0.02976311557 0.040234006941 0.027926083654
          0.058384116739 0.018546391279 0.015612593852 0.022084699944 0.06485491246 0.050958275795
          0.05132932961 0.062441043556 0.037799119949 0.035375416279 0.034855060279 0.045069132
          0.049509912729 0.029485864565 0.040222235024 0.027617713436 0.058800980449 0.018004387617
          0.015007878654 0.021643940359 0.065435789526 0.051176730543 0.051548119634 0.062889121473
          0.037743940949 0.035276096314 0.03472911939 0.045145794749 0.049684807658 0.029245266691
          0.040210925043 0.027349231765 0.059161793441 0.01753376238 0.014483023435 0.021260879934
          0.065938316286 0.051362816244 0.051734428853 0.06327226758 0.037695594132 0.03519019857
          0.034620150924 0.045210972428 0.049833744764 0.029038246721 0.040200531483 0.027118679136
          0.059470038861 0.017129506916 0.014032259583 0.020931471139 0.066368252039 0.051519550383
          0.051891352981 0.063595399261 0.037654295564 0.035116888583 0.034527271986 0.045264538378
          0.04995881021 0.028861694038 0.040190763772 0.026922503486 0.059729468077 0.0167868305
          0.013650386594 0.020652508363 0.066730700433 0.051650028676 0.052021346986 0.063864223659