<VTKFile type="UnstructuredGrid" version="1.0" byte_order="LittleEndian" header_type="UInt64">
  <UnstructuredGrid>
    <Piece NumberOfPoints="791" NumberOfCells="973">
      <PointData>
        <DataArray type="Float32" Name="ux" format="ascii" RangeMin="-1.1426619291" RangeMax="1.7000244856">
          -0.29625096917 -0.26193097234 -0.2843939364 -0.30443301797 -0.3012150228 -0.28756961226
          -0.27180877328 -0.26596066356 -0.22917619348 -0.2426135242 -0.26688799262 -0.24833104014
          -0.27470770478 -0.24928213656 -0.31482511759 -0.31815612316 -0.31534489989 -0.31813460588
          -0.23553802073 -0.23848712444 -0.24513059855 -0.21215495467 -0.22784399986 -0.29942455888
          -0.31824788451 -0.30417340994 -0.28618463874 0.22148969769 0.2259914428 0.22800853848
          -0.012690222822 -0.011873275973 -0.010089554824 0.22080267966 -0.014340130612 0.21567428112
          -0.017116969451 0.22537219524 0.23125447333 0.22927945852 -0.012964275666 -0.0079742493108
          -0.010894661769 0.22596158087 -0.010692777112 0.22459767759 -0.013090273365 0.22052507102
          -0.015652919188 0.23377263546 -0.0085470192134 0.22199350595 -0.013738606125 0.21716052294
          -0.017664667219 0.21420410275 -0.018404249102 0.23302075267 -0.0095178009942 0.42906752229
          0.44548109174 0.44788348675 0.43087100983 0.41759389639 0.44712486863 0.46147242188
          0.45555248857 0.44954478741 0.44262588024 0.43421381712 0.46891501546 0.43739122152
          0.42580723763 0.41820526123 0.46349716187 0.58268254995 0.61203122139 0.61723506451
          0.58362925053 0.56116753817 0.61245894432 0.64215344191 0.62974989414 0.61633241177
          0.60540866852 0.58847427368 0.65571826696 0.5932187438 0.57315552235 0.55992549658
          0.64765501022 0.6585304141 0.70348751545 0.71304053068 0.65939128399 0.62303954363
          0.70661020279 0.75593560934 0.7341427207 0.71590340137 0.69415307045 0.66414892673
          0.77580070496 0.67252188921 0.63716816902 0.61729431152 0.75995200872 0.62397450209
          0.68983662128 0.70591086149 0.62086778879 0.56789493561 0.69423043728 0.77556931973
          0.73794448376 0.71035987139 0.6738126874 0.62587934732 0.80382835865 0.63724178076
          0.57976675034 0.55337077379 0.77825713158 0.50030255318 0.57951229811 0.60107517242
          0.49081325531 0.42535030842 0.58101844788 0.68560409546 0.63703089952 0.60315907001
          0.55628526211 0.49300464988 0.71843057871 0.50655180216 0.43086272478 0.40043902397
          0.68529206514 0.28676694632 0.36854815483 0.39356797934 0.27110925317 0.20053620636
          0.36747959256 0.4861574769 0.43010303378 0.39423537254 0.34160429239 0.2700381279
          0.52117335796 0.28420257568 0.19827339053 0.16651067138 0.48397943377 0.0017398152268
          0.10234475136 0.13552954793 -0.020533505827 -0.10803025961 0.10162639618 0.2496419996
          0.17871429026 0.13771611452 0.068607322872 -0.021961182356 0.28936859965 -0.0017605364555
          -0.11254611611 -0.15250712633 0.24436360598 -0.29049745202 -0.16748744249 -0.12854447961
          -0.31665229797 -0.42350390553 -0.16298979521 0.014686081558 -0.073588140309 -0.11793767661
          -0.20664633811 -0.3162163794 0.059291992337 -0.2876047194 -0.4261932373 -0.47716870904
          0.0041641616262 -0.53639578819 -0.40216377378 -0.35886853933 -0.56488645077 -0.68338006735
          -0.39772173762 -0.20320536196 -0.29978236556 -0.34796723723 -0.44670578837 -0.56497621536
          -0.1545677036 -0.53327006102 -0.68455439806 -0.74101853371 -0.21501100063 -0.74941051006
          -0.60208117962 -0.55430811644 -0.78152376413 -0.91227018833 -0.59655386209 -0.38313093781
          -0.48976355791 -0.54122930765 -0.65090817213 -0.78201520443 -0.33154755831 -0.74632757902
          -0.91641050577 -0.97793149948 -0.39661592245 -0.88383936882 -0.73129570484 -0.67907691002
          -0.92109203339 -1.0574367046 -0.72586899996 -0.49733901024 -0.61261069775 -0.66447144747
          -0.78236401081 -0.92166906595 -0.4426663518 -0.88336908817 -1.0643788576 -1.1302857399
          -0.51343411207 -0.88743531704 -0.73000997305 -0.67448431253 -0.92688018084 -1.0686812401
          -0.72784626484 -0.49588420987 -0.60984760523 -0.6680867672 -0.78442263603 -0.92788022757
          -0.43713459373 -0.88923919201 -1.0733196735 -1.1426619291 -0.50552618504 -0.76618510485
          -0.60380446911 -0.54690849781 -0.80374282598 -0.94866377115 -0.60174781084 -0.36908558011
          -0.48222777247 -0.54136818647 -0.65891760588 -0.80328595638 -0.30715176463 -0.76294255257
          -0.94774311781 -1.0190012455 -0.37413936853 -0.52257329226 -0.35997512937 -0.30365478992
          -0.55817705393 -0.70288568735 -0.35770827532 -0.12920305133 -0.23923319578 -0.2991772294
          -0.41496998072 -0.55535078049 -0.064634427428 -0.51559317112 -0.69706624746 -0.77064663172
          -0.13044424355 -0.18627364933 -0.024668637663 0.03207827732 -0.22227360308 -0.36591202021
          -0.023896329105 0.20470434427 0.095570683479 0.033851265907 -0.079297371209 -0.22108376026
          0.2690551579 -0.18174614012 -0.36219424009 -0.43281123042 0.20453074574 0.23721711338
          0.40139445662 0.45770388842 0.20161114633 0.057254984975 0.40201613307 0.63336569071
          0.52384102345 0.45846822858 0.34622445703 0.20330101252 0.70025378466 0.23963451385
          0.059626463801 -0.011199982837 0.6338070035 0.72063702345 0.89052414894 0.94746398926
          0.68638825417 0.53850436211 0.89263045788 1.1321644783 1.0177519321 0.95102274418
          0.83458769321 0.68711727858 1.2008062601 0.7238675952 0.53982615471 0.46863815188
          1.1301293373 1.219913125 1.3901202679 1.4474129677 1.1841807365 1.0360889435
          1.3888738155 1.6307487488 1.5168225765 1.4464323521 1.3328478336 1.1831185818
          1.7000244856 1.2176557779 1.0351387262 0.965038836 1.6302092075 -0.26602131128
          -0.23708447814 -0.2621139586 -0.23238123953 -0.25317972898 -0.18605712056 -0.17228397727
          -0.20890957117 -0.15654361248 -0.21347995102 -0.20297428966 -0.20466932654 -0.16441933811
          -0.19135859609 -0.22598548234 -0.23866775632 -0.2392167747 -0.21291078627 -0.21402871609
          -0.26252552867 -0.2658392489 -0.23549982905 -0.26905694604 -0.22161950171 -0.20193842053
          -0.19713912904 -0.19559814036 -0.16937328875 -0.16261944175 -0.22445994616 -0.19839477539
          -0.24020712078 -0.22169044614 -0.19954782724 -0.17221033573 -0.187351197 -0.1649903506
          -0.12664121389 -0.14752444625 -0.19144031405 -0.15445384383 -0.20752027631 -0.17631596327
          -0.22346013784 -0.19715589285 -0.16704024374 -0.11943086237 -0.21712268889 -0.18954387307
          -0.23828782141 -0.21802534163 -0.24687083066 -0.2301953584 -0.17656818032 -0.13370892406
          -0.16374692321 -0.12952674925 -0.11972306669 -0.16997231543 -0.20049010217 -0.12691377103
          -0.077022880316 -0.10290872306 -0.11344517767 -0.13960379362 -0.16925595701 -0.064542584121
          -0.16040565073 -0.19943454862 -0.21436905861 -0.081810355186 -0.10798604786 -0.075169250369
          -0.066224329174 -0.11491461098 -0.14326749742 -0.073143385351 -0.023249266669 -0.048607897013
          -0.058977033943 -0.085669480264 -0.11552634835 -0.013577322476 -0.10784108937 -0.14619913697
          -0.15812477469 -0.030282037333 -0.054747015238 -0.026440188289 -0.01906420663 -0.058740865439
          -0.082131028175 -0.023085327819 0.01962720789 -0.0033729199786 -0.01262515597 -0.034499980509
          -0.058839377016 0.028625544161 -0.053143940866 -0.084051534534 -0.095090381801 0.01232226938
          -0.029148845002 -0.0017277302686 0.0048608104698 -0.033100444824 -0.057001411915 0.00055621477077
          0.041792478412 0.020143039525 0.010882202536 -0.0098291877657 -0.032461445779 0.052018687129
          -0.026699906215 -0.056729160249 -0.068870998919 0.037346057594 -0.029605092481 0.0051356106997
          0.016583168879 -0.036184657365 -0.06804125756 0.0055282725953 0.051865048707 0.029691196978
          0.017823169008 -0.006170399487 -0.034987419844 0.065128646791 -0.025172110647 -0.062528990209
          -0.079371109605 0.051900725812 -0.0068985824473 0.028242448345 0.038553901017 -0.010952155106
          -0.041511505842 0.028709264472 0.068694859743 0.05015392229 0.039310030639 0.018060728908
          -0.0080819698051 0.081584215164 0.0018396123778 -0.031955942512 -0.050045210868 0.071795873344
          0.047489326447 0.081242255867 0.090766377747 0.044906917959 0.015374664217 0.084469534457
          0.12389755994 0.10518929362 0.094160802662 0.073531135917 0.048935711384 0.13781878352
          0.058311734349 0.025619277731 0.00872996822 0.12595938146 0.090795904398 0.11611257493
          0.12220170349 0.089217923582 0.068273261189 0.11881019175 0.1500967592 0.13481472433
          0.12567788363 0.10924714059 0.091000445187 0.16087605059 0.096080876887 0.072651967406
          0.062011163682 0.15016756952 0.10678664595 0.12025310844 0.1244995594 0.10502985865
          0.092811226845 0.12202633172 0.13845729828 0.13105937839 0.12632614374 0.1176546514
          0.10587061942 0.14307019114 0.10866846889 0.093685097992 0.089069858193 0.13793732226
          0.10026875883 0.11276137084 0.1160607785 0.097685702145 0.087314203382 0.11558618397
          0.13445167243 0.12410021573 0.12088037282 0.10915696621 0.098606482148 0.13830778003
          0.10339205712 0.08792027086 0.083146162331 0.13132934272 0.096232645214 0.12517863512
          0.13369673491 0.08998863399 0.065734408796 0.12732669711 0.17353983223 0.14940159023
          0.13944733143 0.11526569724 0.089440234005 0.18301972747 0.095339305699 0.062055759132
          0.052112240344 0.16634485126 0.089798472822 0.14526236057 0.16244585812 0.078865192831
          0.031734131277 0.14799048007 0.22969481349 0.18885195255 0.16752393544 0.12722067535
          0.078574374318 0.24982190132 0.088439844549 0.027578758076 0.0073861209676 0.22263984382
          0.066488347948 0.14121510088 0.16325910389 0.051400687546 -0.010535526089 0.14296759665
          0.25333884358 0.19916802645 0.16886867583 0.11693000048 0.050808936357 0.28189718723
          0.064541399479 -0.01589355804 -0.042653419077 0.24650970101 0.015959495679 0.10502102226
          0.13301974535 -0.0025004779454 -0.07906293869 0.10607993603 0.23360167444 0.17214027047
          0.13555237651 0.075749009848 -0.0031074287836 0.26876428723 0.013731212355 -0.083453260362
          -0.11760584265 0.22902527452 -0.059163399041 0.040462289006 0.072770856321 -0.080372527242
          -0.16646124423 0.037524238229 0.18363435566 0.11467047036 0.070467934012 0.0053898566402
          -0.083361670375 0.22554822266 -0.065657444298 -0.17262361944 -0.21068200469 0.18185164034
          -0.16279530525 -0.048962898552 -0.011398552917 -0.18613812327 -0.28516364098 -0.050430350006
          0.11152635515 0.035894412547 -0.013611393981 -0.08813932538 -0.18792837858 0.16001684964
          -0.16636860371 -0.28810146451 -0.33238688111 0.11208739132 -0.28191167116 -0.15913765132
          -0.11742510647 -0.30783289671 -0.41444373131 -0.16017699242 0.016541525722 -0.066861085594
          -0.11907640845 -0.20123381913 -0.30982196331 0.066879250109 -0.28561872244 -0.41791114211
          -0.46714684367 0.015746062621 -0.39987498522 -0.27197495103 -0.22991363704 -0.42632323503
          -0.53663158417 -0.27115103602 -0.091308712959 -0.17623925209 -0.22920142114 -0.31441259384
          -0.42556142807 -0.039189789444 -0.39901778102 -0.53660035133 -0.58968895674 -0.090872853994
          -0.25101161003 -0.23125420511 -0.23023433983 -0.24998506904 -0.26638442278 -0.22387777269
          -0.19723306596 -0.21463577449 -0.21327416599 -0.23376129568 -0.24622558057 -0.19613568485
          -0.23729759455 -0.25908607244 -0.26999104023 -0.20911730826 -0.24036230147 -0.20962268114
          -0.22420330346 -0.25895255804 -0.26951029897 -0.25020885468 -0.28110131621 -0.18901567161
          -0.16813823581 -0.19138306379 -0.25381413102 -0.24364034832 -0.24875085056 -0.29231444001
          -0.332136482 -0.34066143632 -0.39524918795 -0.39171257615 -0.41784009337 -0.32688546181
          -0.12416058779 -0.0947361812 -0.12554393709 -0.20656520128 -0.19369696081 -0.20231680572
          -0.25544422865 -0.30577841401 -0.3167117238 -0.38498082757 -0.38166800141 -0.41383180022
          -0.3013150394 -0.034927673638 -0.0041068396531 -0.035242665559 -0.11711347103 -0.10449754447
          -0.11537148803 -0.16693882644 -0.21726989746 -0.22725743055 -0.29451712966 -0.29191151261
          -0.32236847281 -0.21295376122 0.033835612237 0.059884849936 0.034600973129 -0.034007582814
          -0.021743698046 -0.032490435988 -0.072273179889 -0.11508502066 -0.12035694718 -0.17470285296
          -0.17079505324 -0.19646731019 -0.1096348986 0.052466977388 0.066058605909 0.048999521881
          0.0074074389413 0.019386567175 0.015056338161 -0.010706147179 -0.041962496936 -0.04109923169
          -0.075266338885 -0.070680141449 -0.086756855249 -0.032104540616 1.3724792136e-10 -5.8498689226e-10
          3.3651928466e-10 -3.9931013357e-11 -9.3212784713e-11 -1.9605100529e-11 1.1593480516e-11 1.7366196372e-12
          -2.1884143803e-13 0 0 0 -2.0367260938e-13
        </DataArray>
        <DataArray type="Float32" Name="uy" format="ascii" RangeMin="-1.5018553734" RangeMax="1.2627526522">
          -0.066514149308 -0.092395834625 -0.10186883062 -0.11061754078 -0.15999796987 -0.17350964248
          -0.16886024177 -0.06601601094 -0.085822127759 -0.087170086801 -0.11002310365 -0.16239719093
          -0.15959322453 -0.14322653413 -0.087131336331 -0.089262545109 -0.16704814136 -0.14446040988
          -0.11683165282 -0.12500873208 -0.17794401944 -0.11535775661 -0.17538337409 -0.17909660935
          -0.12566061318 -0.1165683493 -0.10811842233 -0.47943052649 -0.4743566215 -0.47937312722
          -0.36185875535 -0.3593608439 -0.3604272902 -0.47124016285 -0.3575489819 -0.47529509664
          -0.36060795188 -0.46310371161 -0.46134543419 -0.46900597215 -0.35356041789 -0.35438096523
          -0.35733255744 -0.45785191655 -0.35033100843 -0.46825018525 -0.35555404425 -0.46427959204
          -0.35276311636 -0.46873313189 -0.3575155735 -0.45794290304 -0.34902727604 -0.46074908972
          -0.35075199604 -0.46786233783 -0.35541817546 -0.47651147842 -0.35867992043 -0.59709084034
          -0.58627963066 -0.60064309835 -0.57988417149 -0.5837315321 -0.56208467484 -0.55793970823
          -0.57374709845 -0.55083835125 -0.57344740629 -0.56580090523 -0.57383847237 -0.55162841082
          -0.55897939205 -0.5695630908 -0.5915170908 -0.67844778299 -0.65794867277 -0.68499910831
          -0.64370918274 -0.65429991484 -0.61115181446 -0.60334306955 -0.63439708948 -0.58998304605
          -0.63329446316 -0.61771398783 -0.63324457407 -0.59141588211 -0.60327404737 -0.62531220913
          -0.66579705477 -0.66911405325 -0.63504105806 -0.67655587196 -0.61522680521 -0.63155901432
          -0.55897903442 -0.54587304592 -0.59658497572 -0.52197772264 -0.59584403038 -0.57116270065
          -0.59348416328 -0.52371680737 -0.54704207182 -0.58556813002 -0.64671498537 -0.53954160213
          -0.48374259472 -0.54742604494 -0.45697155595 -0.48667094111 -0.36356666684 -0.3443762958
          -0.42247259617 -0.30416104198 -0.42265370488 -0.38598465919 -0.41897252202 -0.30750650167
          -0.34917291999 -0.41517874599 -0.49917826056 -0.27148944139 -0.19961166382 -0.27724570036
          -0.16744969785 -0.20970191061 -0.04912789911 -0.028260562569 -0.12461649626 0.027057312429
          -0.12369950116 -0.077365450561 -0.12424152344 0.024481525645 -0.032494988292 -0.11912415177
          -0.22006157041 0.053060173988 0.13448624313 0.049244843423 0.16932551563 0.1185817048
          0.30637800694 0.32658559084 0.2185806632 0.3920597136 0.22085654736 0.27392980456
          0.21785508096 0.39026170969 0.32483488321 0.22264361382 0.11062732339 0.3191562593
          0.42197927833 0.31765037775 0.46247336268 0.39800712466 0.63118261099 0.65312045813
          0.52458029985 0.73649656773 0.52640938759 0.59181249142 0.52019351721 0.737619102
          0.65517342091 0.52584898472 0.39346340299 0.51355826855 0.63926613331 0.5136500597
          0.68676513433 0.60566091537 0.89286291599 0.91728872061 0.76382255554 1.020731926
          0.7655274868 0.8437204361 0.75842010975 1.0232036114 0.92376345396 0.76189804077
          0.60669612885 0.63113439083 0.76792031527 0.63017362356 0.82230132818 0.73569893837
          1.0449616909 1.0709120035 0.90274566412 1.1842771769 0.90771657228 0.99452787638
          0.89629679918 1.1885830164 1.0813115835 0.90710306168 0.7301479578 0.64446049929
          0.79632019997 0.64611417055 0.85404199362 0.75667089224 1.1020293236 1.1300928593
          0.94545102119 1.2559736967 0.94875442982 1.0455092192 0.93861454725 1.2627526522
          1.1427006721 0.94577896595 0.75676244497 0.54869288206 0.71029722691 0.5524225831
          0.77264195681 0.66702407598 1.0391066074 1.0685038567 0.87062364817 1.2037546635
          0.87373960018 0.9781421423 0.8630181551 1.2109489441 1.0832681656 0.8718392849
          0.67002183199 0.32067164779 0.48967942595 0.3253389895 0.55280184746 0.44460371137
          0.82546359301 0.85543686152 0.65340602398 0.99288755655 0.65774399042 0.76481717825
          0.64810919762 1.0011544228 0.87387400866 0.65746164322 0.44847670197 -0.0027622652706
          0.16683100164 0.00056853581918 0.23104928434 0.12441517413 0.50270658731 0.53546887636
          0.33304920793 0.66982930899 0.33500117064 0.44198873639 0.32937192917 0.67784374952
          0.55071163177 0.33743959665 0.12815451622 -0.34054097533 -0.16999024153 -0.33819898963
          -0.10537177324 -0.21135146916 0.16621378064 0.20070131123 -0.002584680682 0.33117493987
          -0.001043078606 0.10594728589 -0.0039708204567 0.33815842867 0.21383728087 0.0030723037198
          -0.20901682973 -0.64809966087 -0.47992435098 -0.64629262686 -0.415040344 -0.51889151335
          -0.147967875 -0.11125207692 -0.31403243542 0.016901763156 -0.3119983077 -0.20738187432
          -0.31501543522 0.021955274045 -0.10154972225 -0.30852037668 -0.51762360334 -0.94468784332
          -0.77426409721 -0.94242066145 -0.70991939306 -0.81554591656 -0.43727654219 -0.39899969101
          -0.60592061281 -0.26933801174 -0.60528498888 -0.49958232045 -0.60587567091 -0.26583594084
          -0.3929747045 -0.60286188126 -0.81213277578 -1.2315078974 -1.0571198463 -1.230594635
          -0.99070996046 -1.0979001522 -0.70993942022 -0.6693649888 -0.88302063942 -0.53704160452
          -0.88384276628 -0.77631819248 -0.8822003603 -0.53599834442 -0.66814887524 -0.88309121132
          -1.0973802805 -1.501765132 -1.3287531137 -1.5018553734 -1.2609225512 -1.368539691
          -0.98150384426 -0.94074726105 -1.1556649208 -0.80748122931 -1.1542295218 -1.0476652384
          -1.1563991308 -0.80679124594 -0.93959563971 -1.1530530453 -1.369623065 -0.23624306917
          -0.24448272586 -0.23262764513 -0.24944368005 -0.24466989934 -0.26467937231 -0.26949328184
          -0.25534975529 -0.27540042996 -0.25466942787 -0.26007661223 -0.25493049622 -0.27115026116
          -0.2629661262 -0.25398978591 -0.2400418222 -0.19067692757 -0.19294814765 -0.20459103584
          -0.17945340276 -0.186534971 -0.20232309401 -0.19239556789 -0.049980316311 -0.066053710878
          -0.047547373921 -0.044278226793 -0.06907735765 -0.041969843209 -0.075163982809 -0.081759020686
          -0.064794167876 -0.067047439516 -0.10132341832 -0.10331020504 -0.082236051559 -0.12341274321
          -0.12763915956 -0.094420187175 -0.11935050786 -0.15077187121 -0.084041230381 -0.096973076463
          -0.096205636859 -0.1152805686 -0.080164216459 -0.09251383692 -0.12176001817 -0.1525876075
          -0.10927170515 -0.13394144177 -0.087246075273 -0.10134647042 -0.059982735664 -0.059899743646
          -0.036938965321 -0.070644691586 -0.035943955183 -0.085367448628 -0.064218759537 -0.14330856502
          -0.149317801 -0.10523679107 -0.17901240289 -0.10696424544 -0.13009554148 -0.10418629646
          -0.18049369752 -0.15438871086 -0.10864774883 -0.061089027673 -0.042812645435 -0.073908798397
          -0.041586298496 -0.088070012629 -0.067765325308 -0.1407109797 -0.14665791392 -0.10507424921
          -0.17715354264 -0.10726936907 -0.12919224799 -0.10305824876 -0.17811079323 -0.15104714036
          -0.1090356335 -0.063366726041 -0.0080308858305 -0.033735841513 -0.0057989326306 -0.045985776931
          -0.028770396486 -0.092958539724 -0.097914226353 -0.06155090034 -0.12356107682 -0.063132189214
          -0.08140707016 -0.057474460453 -0.12387026101 -0.099009789526 -0.062088701874 -0.023488337174
          0.10542160273 0.078682936728 0.10782283545 0.066841565073 0.084716789424 0.017200319096
          0.010772999376 0.048442009836 -0.012564601377 0.048462700099 0.028937993571 0.05026108399
          -0.012937559746 0.010706868023 0.047690678388 0.087453216314 0.26065695286 0.22702918947
          0.26122656465 0.21168075502 0.23094426095 0.15848872066 0.15023209155 0.19319327176
          0.12461129576 0.19254434109 0.16929320991 0.19280998409 0.12277788669 0.146248281
          0.18625895679 0.23478361964 0.33266928792 0.30042871833 0.33349874616 0.28589510918
          0.30336198211 0.23881141841 0.23207783699 0.27013808489 0.20972110331 0.26862436533
          0.24661776423 0.26724711061 0.20554512739 0.22399483621 0.26014149189 0.30623885989
          0.2958059907 0.26422128081 0.29749381542 0.2502835393 0.26721552014 0.20152279735
          0.19384609163 0.23202185333 0.17237271369 0.23189049959 0.21179331839 0.23066549003
          0.17130541801 0.19066497684 0.22727862 0.27169030905 0.18605352938 0.16397458315
          0.18911495805 0.15388002992 0.16540984809 0.1156931147 0.10789767653 0.13962951303
          0.091147981584 0.13986007869 0.12501102686 0.13747550547 0.092127017677 0.1095386669
          0.13679130375 0.16982616484 0.022571638227 0.0096695451066 0.022479109466 0.0064176069573
          0.013141009025 -0.014267185703 -0.01810445264 -0.0025337992702 -0.027097819373 -0.0011780834757
          -0.0083774607629 -0.0039570275694 -0.027055637911 -0.017249537632 -0.001571957604 0.011554055847
          -0.14258795977 -0.1552516073 -0.14163455367 -0.15888258815 -0.15115915239 -0.17961210012
          -0.18267357349 -0.16760332882 -0.19276225567 -0.16663490236 -0.17322289944 -0.16642065346
          -0.1916808784 -0.18026918173 -0.16379569471 -0.15025049448 -0.24169026315 -0.26956272125
          -0.23968067765 -0.28171724081 -0.26347717643 -0.33050179482 -0.33576893806 -0.29796460271
          -0.36299711466 -0.29949373007 -0.31844645739 -0.29440003633 -0.36241781712 -0.33590814471
          -0.2978618145 -0.25860551 -0.24485574663 -0.30116200447 -0.24400573969 -0.32290285826
          -0.286983639 -0.41544759274 -0.42605283856 -0.35692507029 -0.47357058525 -0.35878431797
          -0.39308694005 -0.35294383764 -0.47336560488 -0.42604717612 -0.35511878133 -0.28399163485
          -0.17111641169 -0.24516901374 -0.16970618069 -0.27361291647 -0.22627021372 -0.39680221677
          -0.41316947341 -0.31964206696 -0.47511509061 -0.32002717257 -0.36568006873 -0.31656301022
          -0.47333592176 -0.41150033474 -0.31660988927 -0.22432234883 -0.039797846228 -0.13019904494
          -0.039429057389 -0.16394032538 -0.10617548227 -0.31289717555 -0.33360043168 -0.22035743296
          -0.40572327375 -0.22022223473 -0.27627113461 -0.21877126396 -0.40457102656 -0.33197119832
          -0.21760077775 -0.10734332353 0.12703262269 0.024213299155 0.12695258856 -0.014470953494
          0.049898467958 -0.18597298861 -0.21101798117 -0.079915568233 -0.29328331351 -0.07951451093
          -0.14426399767 -0.077945768833 -0.29013356566 -0.20720592141 -0.076778784394 0.050224788487
          0.34334620833 0.22662854195 0.3441272378 0.1832588464 0.25562411547 -0.0076717855409
          -0.036317106336 0.10963371396 -0.12621678412 0.10946085304 0.038301028311 0.11025336385
          -0.1241267994 -0.031824037433 0.1132869944 0.25503414869 0.59884625673 0.47449070215
          0.59942102432 0.42591148615 0.50233346224 0.22140364349 0.19048088789 0.3489010632
          0.092778228223 0.34819376469 0.2699201405 0.34942144156 0.092493034899 0.19195948541
          0.34760275483 0.50447738171 0.84278059006 0.71192020178 0.84237760305 0.66261166334
          0.74368470907 0.45221629739 0.42105722427 0.58177912235 0.32207080722 0.58206135035
          0.5018504858 0.58068364859 0.32170733809 0.42080795765 0.58196371794 0.74249440432
          -0.047658398747 -0.062914721668 -0.046547938138 -0.070333905518 -0.060418341309 -0.099355913699
          -0.10178422183 -0.07948192209 -0.11886099726 -0.080669783056 -0.093312174082 -0.077687546611
          -0.12035864592 -0.10527034104 -0.082437008619 -0.057658378035 -0.13932232559 -0.14368115366
          -0.1606040448 -0.11651786417 -0.1312469244 -0.16051392257 -0.14468210936 -0.11523482203
          -0.042683098465 0.02930493094 0.075316183269 -0.043200258166 -0.16166801751 -0.04346369952
          0.07581654191 -0.043903078884 0.029226783663 -0.1197694242 -0.046301372349 -0.16318562627
          -0.10839363188 -0.017153918743 0.075782939792 0.13438265026 -0.016480758786 -0.16568093002
          -0.016947949305 0.13484737277 -0.01661061123 0.076419621706 -0.11127103865 -0.017402304336
          -0.16729569435 -0.087196692824 0.0073008434847 0.10063713789 0.1585533917 0.0065586017445
          -0.14489495754 0.0068561215885 0.15733669698 0.0062433504499 0.09934861213 -0.085889145732
          0.0069871130399 -0.14369018376 -0.058770745993 0.017385862768 0.093578740954 0.14000028372
          0.017270095646 -0.10376602411 0.017886072397 0.13699696958 0.017595892772 0.090329878032
          -0.054656084627 0.017011653632 -0.10135763139 -0.025036437437 0.019129227847 0.063783861697
          0.088358260691 0.01816063188 -0.052567455918 0.017436318099 0.084979072213 0.017261777073
          0.056660171598 -0.023409727961 0.016508886591 -0.050490006804 -1.958335577e-11 -4.2251448867e-11
          1.7689826383e-12 -1.5847633969e-11 -3.0017609925e-11 2.0588466695e-11 -1.7857543786e-12 -6.6221502023e-13
          8.2608675759e-13 0 0 0 -4.4053297251e-13
        </DataArray>
        <DataArray type="Float32" Name="uz" format="ascii" RangeMin="-0.37230971456" RangeMax="0.35724896193">
          -0.047062534839 -0.029706789181 -0.051996454597 -0.064631611109 -0.076122768223 -0.080756999552
          -0.062674894929 -0.025114530697 0.00052706385031 -0.016572674736 -0.040589362383 -0.040419857949
          -0.057186823338 -0.036153838038 -0.070745542645 -0.070371471345 -0.098254367709 -0.087322443724
          -0.016764376312 -0.020372213796 -0.048988256603 0.0026500669774 -0.031922996044 -0.10008454323
          -0.085613824427 -0.076490454376 -0.053228307515 -0.37230971456 -0.28603506088 -0.33762893081
          -0.36763983965 -0.28438195586 -0.33543112874 -0.29462775588 -0.29259219766 -0.35593408346
          -0.35067510605 -0.16790218651 -0.11371783912 -0.20755496621 -0.17315173149 -0.12152387947
          -0.20892164111 -0.095967516303 -0.10761666298 -0.23614509404 -0.2365270257 -0.2224945426
          -0.22502674162 -0.17693543434 -0.18059590459 -0.13365505636 -0.14378768206 -0.20979656279
          -0.21367301047 -0.29425346851 -0.29196467996 -0.26292786002 -0.26299092174 -0.34193024039
          -0.27205884457 -0.31607481837 -0.27516779304 -0.32465481758 -0.16934639215 -0.12617094815
          -0.2054938525 -0.11045207083 -0.22697976232 -0.21252702177 -0.18099366128 -0.13853465021
          -0.19920280576 -0.26986685395 -0.25482863188 -0.28101849556 -0.24587139487 -0.27922666073
          -0.23332549632 -0.25637125969 -0.17686110735 -0.16419966519 -0.21003863215 -0.14124260843
          -0.21160399914 -0.19097936153 -0.20571371913 -0.14452582598 -0.17172026634 -0.2139480859
          -0.25065565109 -0.19090758264 -0.20987381041 -0.22773636878 -0.17126609385 -0.15361969173
          -0.18830960989 -0.2258297503 -0.22086896002 -0.18668805063 -0.18974718451 -0.15777826309
          -0.25105527043 -0.1494166553 -0.12693154812 -0.12823478878 -0.25135660172 -0.091755263507
          -0.17049182951 -0.17350159585 -0.10440263152 -0.039204280823 -0.20566660166 -0.29721400142
          -0.23353613913 -0.24508070946 -0.16809082031 -0.12605038285 -0.30034261942 -0.16301777959
          -0.08347273618 -0.036241926253 -0.25299105048 -0.0078676491976 -0.13291195035 -0.11700871587
          -0.052252836525 0.0478560552 -0.2219375819 -0.35143613815 -0.23784404993 -0.29623186588
          -0.14994995296 -0.10719233751 -0.32979673147 -0.18483580649 -0.060819149017 0.026982871816
          -0.2395939678 0.045973695815 -0.10180927813 -0.065054230392 -0.025891179219 0.088722512126
          -0.22940465808 -0.36532497406 -0.22733029723 -0.32426917553 -0.13746158779 -0.10403480381
          -0.31905123591 -0.21087278426 -0.070311516523 0.043875224888 -0.20377208292 0.062398724258
          -0.084005042911 -0.033346697688 -0.024874016643 0.083535522223 -0.22671243548 -0.34654149413
          -0.20994068682 -0.32362177968 -0.1322864145 -0.11253584921 -0.28757962584 -0.22649727762
          -0.094858393073 0.023161457852 -0.16742993891 0.050492689013 -0.068553902209 -0.014931010082
          -0.034468263388 0.051790550351 -0.20524777472 -0.29293912649 -0.17485882342 -0.29011169076
          -0.12060856074 -0.11812441796 -0.22842387855 -0.22172927856 -0.11528872699 -0.011184799485
          -0.12165047228 0.03287788853 -0.049649037421 0.00062160386005 -0.04172148183 0.016464518383
          -0.16580532491 -0.21338009834 -0.12477084994 -0.23308463395 -0.099647305906 -0.11335013062
          -0.14918227494 -0.1996203661 -0.12778003514 -0.044725578278 -0.067416548729 0.0096514970064