<VTKFile type="UnstructuredGrid" version="1.0" byte_order="LittleEndian" header_type="UInt64">
  <UnstructuredGrid>
    <Piece NumberOfPoints="791" NumberOfCells="973">
      <PointData>
        <DataArray type="Float32" Name="ux" format="ascii" RangeMin="-0.74080228806" RangeMax="1.1273766642e-10">
          -0.066280208528 -0.072203017771 -0.074517905712 -0.065181791782 -0.066289290786 -0.074441894889
          -0.072261087596 -0.066298760474 -0.070754282176 -0.067333735526 -0.065231733024 -0.070797644556
          -0.066340707242 -0.067389577627 -0.070683501661 -0.067307800055 -0.070691049099 -0.067257896066
          -0.078236453235 -0.070338591933 -0.078322552145 -0.07824588567 -0.078318156302 -0.078130669892
          -0.070225298405 -0.078219749033 -0.064492247999 -0.14534577727 -0.14569851756 -0.14587785304
          -0.11870567501 -0.11908804625 -0.1192400381 -0.14523404837 -0.11862734705 -0.14488528669
          -0.11826261133 -0.14568115771 -0.14612390101 -0.14593037963 -0.11909174174 -0.11952376366
          -0.11932795495 -0.14581178129 -0.11923517287 -0.14555889368 -0.11896185577 -0.14525690675
          -0.11867476255 -0.14628343284 -0.11966867745 -0.14539361 -0.11884181201 -0.14497175813
          -0.11841969937 -0.14474795759 -0.1181608364 -0.14622233808 -0.11958829314 -0.17311684787
          -0.17347608507 -0.17364279926 -0.17301642895 -0.17266878486 -0.17346403003 -0.17391115427
          -0.17371165752 -0.17359568179 -0.17334076762 -0.173041448 -0.17406496406 -0.17317518592
          -0.17275942862 -0.17253808677 -0.17399083078 -0.20194977522 -0.20230743289 -0.20246958733
          -0.20185157657 -0.20150895417 -0.20229718089 -0.20275121927 -0.20254716277 -0.20242677629
          -0.20217442513 -0.20187333226 -0.20290493965 -0.20199920237 -0.20158666372 -0.20137533545
          -0.20282246172 -0.23171012104 -0.23206792772 -0.23222416639 -0.23161515594 -0.23127640784
          -0.23205843568 -0.23251861334 -0.23231041431 -0.23218680918 -0.23193643987 -0.23163430393
          -0.23267136514 -0.23175367713 -0.23134501278 -0.23114134371 -0.23258066177 -0.2622821331
          -0.26263967156 -0.26279076934 -0.26219037175 -0.26185527444 -0.26263168454 -0.26309728622
          -0.26288551092 -0.26275864244 -0.26251006126 -0.26220715046 -0.26324909925 -0.26232028008
          -0.2619151175 -0.26171919703 -0.26315116882 -0.29355695844 -0.2939145565 -0.29406100512
          -0.2934679389 -0.29313629866 -0.29390782118 -0.29437845945 -0.29416316748 -0.29403376579
          -0.29378661513 -0.29348245263 -0.29452964664 -0.29359027743 -0.2931882441 -0.29299888015
          -0.29442492127 -0.32543334365 -0.32579088211 -0.32593327761 -0.32534685731 -0.32501783967
          -0.32578542829 -0.32626116276 -0.3260423243 -0.3259100914 -0.32566440105 -0.32535910606
          -0.3264118135 -0.32546180487 -0.32506227493 -0.32487913966 -0.32630056143 -0.35781753063
          -0.35817560554 -0.35831418633 -0.35773339868 -0.35740697384 -0.35817092657 -0.35865142941
          -0.35842940211 -0.35829484463 -0.35805007815 -0.35774385929 -0.35880172253 -0.35784187913
          -0.35744476318 -0.35726723075 -0.35868471861 -0.39062538743 -0.39098355174 -0.39111885428
          -0.39054334164 -0.39021915197 -0.39097997546 -0.39146476984 -0.39123994112 -0.39110291004
          -0.39085951447 -0.39055198431 -0.39161479473 -0.39064583182 -0.39025065303 -0.3900783658
          -0.39149227738 -0.42378091812 -0.42413952947 -0.42427149415 -0.42370036244 -0.42337867618
          -0.42413640022 -0.42462557554 -0.42439800501 -0.42425888777 -0.42401614785 -0.42370778322
          -0.4247751832 -0.42379784584 -0.42340415716 -0.42323634028 -0.42464762926 -0.45721623302
          -0.45757493377 -0.45770469308 -0.45713716745 -0.45681709051 -0.4575728178 -0.45806568861
          -0.45783573389 -0.4576947391 -0.45745253563 -0.45714315772 -0.45821499825 -0.45722997189
          -0.45683759451 -0.45667374134 -0.45808318257 -0.49087113142 -0.49123027921 -0.4913572669
          -0.49079343677 -0.4904743135 -0.49122855067 -0.49172490835 -0.49149253964 -0.49134996533
          -0.4911082685 -0.49079784751 -0.49187397957 -0.49088183045 -0.49049061537 -0.49033042789
          -0.49173828959 -0.52469307184 -0.52505254745 -0.52517771721 -0.52461665869 -0.52429884672
          -0.52505129576 -0.52555060387 -0.52531629801 -0.52517235279 -0.524931252 -0.52462011576
          -0.52569949627 -0.5247015357 -0.52431112528 -0.52415394783 -0.52556049824 -0.55863809586
          -0.55899763107 -0.55912095308 -0.55856239796 -0.55824619532 -0.5589966774 -0.5594984293
          -0.55926245451 -0.55911761522 -0.55887669325 -0.55856508017 -0.55964684486 -0.55864411592
          -0.55825489759 -0.55810022354 -0.55950516462 -0.59266912937 -0.59302830696 -0.59315025806
          -0.59259396791 -0.59227854013 -0.59302794933 -0.59353113174 -0.59329420328 -0.5931481123
          -0.59290802479 -0.59259551764 -0.59367930889 -0.59267318249 -0.59228461981 -0.59213238955
          -0.5935356617 -0.62675595284 -0.62711530924 -0.62723624706 -0.62668144703 -0.62636685371
          -0.62711495161 -0.62761974335 -0.62738180161 -0.62723523378 -0.62699526548 -0.62668263912
          -0.62776792049 -0.62675845623 -0.62637031078 -0.62622010708 -0.62762230635 -0.66087579727
          -0.66123491526 -0.66135507822 -0.66080147028 -0.66048741341 -0.66123497486 -0.66174077988
          -0.66150206327 -0.66135489941 -0.6611148715 -0.66080212593 -0.66188901663 -0.66087710857
          -0.66048926115 -0.66034001112 -0.66174191236 -0.69501036406 -0.69536978006 -0.6954895854
          -0.6949364543 -0.69462293386 -0.69536983967 -0.69587659836 -0.6956372261 -0.695489645
          -0.69524985552 -0.6949365139 -0.69602441788 -0.69501084089 -0.69462347031 -0.69447505474
          -0.69587665796 -0.72914928198 -0.72950839996 -0.72962802649 -0.7290751338 -0.72876173258
          -0.72950834036 -0.73001533747 -0.72977614403 -0.7296282053 -0.72938877344 -0.72907519341
          -0.7301633954 -0.72914928198 -0.72876191139 -0.72861385345 -0.73001539707 -0.083979554474
          -0.088377267122 -0.084302470088 -0.089657478034 -0.08686375618 -0.096603564918 -0.097877308726
          -0.092662662268 -0.10081894696 -0.092415504158 -0.094754524529 -0.092897236347 -0.10054504871
          -0.097125574946 -0.091882258654 -0.087745890021 -0.08440823853 -0.08586447686 -0.090527176857
          -0.078271649778 -0.081998869777 -0.090475477278 -0.085717283189 -0.11973443627 -0.11936473101
          -0.11925116181 -0.14676888287 -0.14637638628 -0.14629074931 -0.11975438148 -0.14676013589
          -0.12003890425 -0.14707043767 -0.11940359324 -0.11900345236 -0.11912807822 -0.14638511837
          -0.14595608413 -0.14612095058 -0.11938759685 -0.14633241296 -0.11947643757 -0.14647321403
          -0.11973515153 -0.14672937989 -0.1187595427 -0.1457490027 -0.11971880496 -0.14669260383
          -0.11995970458 -0.14695933461 -0.12009833008 -0.14711053669 -0.11885040998 -0.14587397873
          -0.17493642867 -0.17455872893 -0.17446607351 -0.1749407351 -0.17523926497 -0.17457190156
          -0.17414946854 -0.17431041598 -0.17451961339 -0.17465810478 -0.17491513491 -0.17394517362
          -0.17487964034 -0.1751485467 -0.17529204488 -0.17406229675 -0.20417454839 -0.20380419493
          -0.20371176302 -0.20418438315 -0.20448094606 -0.20381550491 -0.20339024067 -0.20355778933
          -0.20375582576 -0.20390368998 -0.20416198671 -0.20319615304 -0.20412258804 -0.20439915359
          -0.2045417577 -0.2033161521 -0.23435400426 -0.23399159312 -0.23389773071 -0.23437030613
          -0.23466271162 -0.23400114477 -0.23357559741 -0.2337474525 -0.23393678665 -0.23409114778
          -0.23435010016 -0.23338983953 -0.2343083024 -0.23459090292 -0.23473130167 -0.23351036012
          -0.26536291838 -0.26500803232 -0.26491338015 -0.26538515091 -0.26567450166 -0.26501619816
          -0.26459008455 -0.26476594806 -0.26494702697 -0.26510792971 -0.26536786556 -0.26441207528
          -0.26532304287 -0.26561164856 -0.26575025916 -0.26453325152 -0.29709556699 -0.29674714804
          -0.29665181041 -0.29712322354 -0.29740920663 -0.29675427079 -0.29632717371 -0.29650697112
          -0.29668033123 -0.29684728384 -0.29710799456 -0.29615658522 -0.29706072807 -0.2973549068
          -0.29749187827 -0.29627847672 -0.32945162058 -0.32910954952 -0.32901328802 -0.32948437333
          -0.32976770401 -0.32911527157 -0.32868757844 -0.32887107134 -0.3290373981 -0.32920992374
          -0.32947149873 -0.32852357626 -0.32942160964 -0.32972118258 -0.32985657454 -0.32864642143
          -0.36233991385 -0.36200368404 -0.36190655828 -0.36237731576 -0.36265790462 -0.36200836301
          -0.36158013344 -0.36176693439 -0.36192670465 -0.36210396886 -0.36236643791 -0.36142209172
          -0.36231446266 -0.36261865497 -0.36275261641 -0.36154559255 -0.39567688107 -0.39534601569
          -0.39524850249 -0.39571848512 -0.39599651098 -0.3953499496 -0.39492127299 -0.39511093497
          -0.39526459575 -0.39544671774 -0.39570954442 -0.39476910233 -0.39565581083 -0.39596402645
          -0.39609661698 -0.39489299059 -0.42938584089 -0.4290599525 -0.42896166444 -0.42943146825
          -0.42970702052 -0.42906281352 -0.42863413692 -0.42882633209 -0.42897468805 -0.42916044593
          -0.42942389846 -0.42848712206 -0.42936828732 -0.42968049645 -0.42981171608 -0.42861130834
          -0.46339595318 -0.46307447553 -0.46297562122 -0.46344515681 -0.46371877193 -0.4630767107
          -0.46264752746 -0.46284204721 -0.462985605 -0.46317511797 -0.46343925595 -0.46250513196
          -0.46338194609 -0.4636978507 -0.46382758021 -0.46262967587 -0.49764466286 -0.49732664227
          -0.49722740054 -0.49769663811 -0.4979686439 -0.4973282516 -0.49689856172 -0.49709558487
          -0.4972345829 -0.49742782116 -0.49769195914 -0.49676010013 -0.4976336956 -0.49795252085
          -0.49808159471 -0.49688524008 -0.53207623959 -0.53176188469 -0.5316619277 -0.53213137388
          -0.53240168095 -0.53176283836 -0.53133302927 -0.53153169155 -0.5316671133 -0.53186297417
          -0.53212791681 -0.53119802475 -0.53206825256 -0.53238970041 -0.53251779079 -0.53132325411
          -0.56664431095 -0.56633281708 -0.56623244286 -0.56670159101 -0.56697046757 -0.56633329391
          -0.56590336561 -0.5661033392 -0.5662356019 -0.56643396616 -0.56669902802 -0.5657709837
          -0.56663835049 -0.56696224213 -0.56708955765 -0.56589668989 -0.60130810738 -0.60099869967
          -0.60089802742 -0.60136723518 -0.60163515806 -0.60099899769 -0.60056859255 -0.60076999664
          -0.60090005398 -0.60110008717 -0.60136538744 -0.60043907166 -0.60130399466 -0.60162961483
          -0.60175639391 -0.60056465864 -0.636033535 -0.63572567701 -0.63562476635 -0.63609391451
          -0.63636153936 -0.63572597504 -0.63529539108 -0.63549774885 -0.63562577963 -0.63582724333
          -0.63609296083 -0.63516747952 -0.63603079319 -0.6363581419 -0.63648450375 -0.63529318571
          -0.67079329491 -0.67048716545 -0.67038559914 -0.67085528374 -0.67112189531 -0.67048704624
          -0.67005634308 -0.67025923729 -0.67038595676 -0.67058861256 -0.6708547473 -0.66992986202
          -0.670791924 -0.67112034559 -0.6712462306 -0.67005556822 -0.70556861162 -0.70526313782
          -0.70516133308 -0.70563101768 -0.70589745045 -0.70526301861 -0.70483225584 -0.70503556728
          -0.7051615119 -0.70536476374 -0.70563077927 -0.70470637083 -0.70556807518 -0.70589697361
          -0.70602291822 -0.70483213663 -0.74034750462 -0.74004250765 -0.73994076252 -0.74041050673
          -0.74067670107 -0.74004232883 -0.73961162567 -0.73981505632 -0.73994088173 -0.74014407396
          -0.74041044712 -0.73948585987 -0.74034756422 -0.74067664146 -0.74080228806 -0.73961162567
          -0.084290958941 -0.088301688433 -0.084014609456 -0.090133182704 -0.087723903358 -0.096650458872
          -0.097393997014 -0.09232801944 -0.1008201316 -0.092543199658 -0.095273479819 -0.092091567814
          -0.10102066398 -0.097990632057 -0.092923283577 -0.08699477464 -0.084417536855 -0.085838675499
          -0.090556509793 -0.078271143138 -0.08204818517 -0.090558633208 -0.085809774697 -0.04339183867
          -0.043138369918 -0.043098617345 -0.043379265815 -0.043286185712 -0.043527290225 -0.043299809098
          -0.04352568835 -0.043259978294 -0.043339453638 -0.043027333915 -0.04306621477 -0.043336573988
          -0.026843294501 -0.02670025453 -0.026589693502 -0.026790747419 -0.02669220604 -0.026921873912
          -0.026689836755 -0.026914587244 -0.026670401916 -0.026805816218 -0.026538401842 -0.026644354686
          -0.026763491333 -0.014604079537 -0.014426574111 -0.014333254658 -0.014560244977 -0.0144606838
          -0.014699517749 -0.014463503845 -0.014698717743 -0.014445425943 -0.014578782953 -0.014293974265
          -0.014387028292 -0.014536517672 -0.0062940320931 -0.0061274664477 -0.0060339546762 -0.0062536397018
          -0.006159410812 -0.0063882218674 -0.0061662769876 -0.0063912137412 -0.0061494279653 -0.0062801851891
          -0.0060067651793 -0.0061021922156 -0.0062351017259 -0.001609840896 -0.0014014786575 -0.0012884187745
          -0.0015632841969 -0.0014389985008 -0.001729807118 -0.0014461562969 -0.0017382114893 -0.0014340997441
          -0.001607783488 -0.0012706454145 -0.0013893812429 -0.0015472073574 -1.9694130007e-11 1.1273766642e-10
          -1.0882172767e-11 3.0455416834e-12 8.9052792918e-12 2.5917183438e-13 -1.4810852197e-12 4.1694935942e-14
          -1.5844059387e-15 0 0 0 2.5378260759e-14
        </DataArray>
        <DataArray type="Float32" Name="uy" format="ascii" RangeMin="-0.78905004263" RangeMax="5.2873816436e-12">
          -0.068838827312 -0.074840076268 -0.077265776694 -0.067755766213 -0.068703316152 -0.07711109519
          -0.074785627425 -0.068797819316 -0.07339323312 -0.069926895201 -0.067763954401 -0.073469214141
          -0.068755023181 -0.069910690188 -0.073580704629 -0.069992028177 -0.073336698115 -0.069879621267
          -0.081090204418 -0.072936020792 -0.08109344542 -0.081150703132 -0.081150971353 -0.081064663827
          -0.072972394526 -0.081224799156 -0.067012168467 -0.15223327279 -0.15265470743 -0.15229144692
          -0.12327430397 -0.12370387465 -0.12331926078 -0.152787745 -0.12384784967 -0.15254746377
          -0.12359631807 -0.1533626914 -0.15343701839 -0.15303228796 -0.12441856414 -0.12450342625
          -0.12408725172 -0.15367740393 -0.12473157793 -0.15301828086 -0.124078013 -0.15326169133
          -0.12432736158 -0.15307213366 -0.12413304299 -0.15374074876 -0.12480055541 -0.15353862941
          -0.12461588532 -0.15307742357 -0.12414394319 -0.15264065564 -0.12367519736 -0.18235905468
          -0.182776317 -0.18240880966 -0.18291145563 -0.18267020583 -0.18349012733 -0.18356837332
          -0.18315456808 -0.18381251395 -0.18314222991 -0.1833845228 -0.183190763 -0.18386720121
          -0.18365651369 -0.18319389224 -0.18275141716 -0.21353447437 -0.21394483745 -0.21357835829
          -0.21408034861 -0.21384182572 -0.21465988457 -0.21473863721 -0.21432107687 -0.21498692036
          -0.21431055665 -0.21455068886 -0.21435286105 -0.21503555775 -0.21481725574 -0.21435670555
          -0.21391303837 -0.24563190341 -0.24603651464 -0.24567018449 -0.24617265165 -0.24593560398
          -0.2467533499 -0.24683320522 -0.24641132355 -0.24708503485 -0.24640212953 -0.24664051831
          -0.24643921852 -0.24712783098 -0.24690186977 -0.24644260108 -0.24599790573 -0.27853804827
          -0.27893739939 -0.27857148647 -0.27907416224 -0.2788388133 -0.27965599298 -0.27973625064
          -0.27931082249 -0.27999183536 -0.27930271626 -0.27953952551 -0.27933511138 -0.28002882004
          -0.2797960341 -0.27933827043 -0.27889248729 -0.31214776635 -0.31254220009 -0.31217607856
          -0.31267938018 -0.31244567037 -0.31326240301 -0.31334355474 -0.3129145503 -0.31360220909
          -0.31290751696 -0.3131428957 -0.31293526292 -0.31363421679 -0.31339496374 -0.31293839216
          -0.31249141693 -0.34636366367 -0.34675389528 -0.34638747573 -0.34689179063 -0.34665924311
          -0.34747609496 -0.34755834937 -0.34712544084 -0.34782004356 -0.34711953998 -0.34735357761
          -0.3471429944 -0.34784701467 -0.34760197997 -0.34714594483 -0.3466976583 -0.38109728694
          -0.38148352504 -0.38111707568 -0.38162189722 -0.38139039278 -0.38220793009 -0.38229072094
          -0.38185429573 -0.38255551457 -0.38184961677 -0.38208240271 -0.3818693161 -0.38257798553
          -0.38232758641 -0.38187173009 -0.38142222166 -0.41626653075 -0.4166496098 -0.41628268361
          -0.41678842902 -0.41655784845 -0.41737565398 -0.4174593389 -0.41701975465 -0.41772681475
          -0.41701567173 -0.41724768281 -0.4170320034 -0.4177454412 -0.41748949885 -0.41703441739
          -0.41658356786 -0.45179724693 -0.45217740536 -0.45181033015 -0.45231664181 -0.4520868957
          -0.45290544629 -0.45298966765 -0.45254716277 -0.4532597959 -0.45254409313 -0.45277535915
          -0.45255729556 -0.45327490568 -0.45301422477 -0.45255929232 -0.45210748911 -0.48762235045
          -0.4880002141 -0.48763260245 -0.48813977838 -0.48791030049 -0.48873025179 -0.4888150394
          -0.48836958408 -0.48908740282 -0.48836731911 -0.48859772086 -0.48837760091 -0.48909935355
          -0.48883455992 -0.48837956786 -0.48792636395 -0.52368199825 -0.52405774593 -0.52368956804
          -0.52419781685 -0.52396863699 -0.52478933334 -0.52487486601 -0.52442705631 -0.52514964342
          -0.52442520857 -0.5246552825 -0.52443307638 -0.52515882254 -0.5248901248 -0.52443492413
          -0.52398067713 -0.55992341042 -0.56029707193 -0.55992889404 -0.56043750048 -0.56020885706
          -0.56103044748 -0.56111615896 -0.56066638231 -0.5613926053 -0.56066501141 -0.56089454889
          -0.56067067385 -0.56139963865 -0.56112760305 -0.56067216396 -0.56021755934 -0.59630012512
          -0.59667229652 -0.59630417824 -0.59681290388 -0.5965846777 -0.59740650654 -0.59749281406
          -0.59704142809 -0.59777063131 -0.59704035521 -0.59726947546 -0.59704440832 -0.59777545929
          -0.5975009799 -0.59704571962 -0.59659051895 -0.63277280331 -0.6331436038 -0.6327752471
          -0.63328409195 -0.633056283 -0.63387852907 -0.6339648366 -0.63351202011 -0.63424390554
          -0.63351154327 -0.63373994827 -0.63351428509 -0.63424706459 -0.63397037983 -0.63351517916
          -0.63305997849 -0.66930747032 -0.66967689991 -0.66930884123 -0.66981780529 -0.66958999634
          -0.67041265965 -0.67049926519 -0.67004543543 -0.67077928782 -0.67004513741 -0.67027342319
          -0.67004674673 -0.67078107595 -0.67050266266 -0.67004740238 -0.66959196329 -0.70587718487
          -0.70624643564 -0.70587778091 -0.706387043 -0.70615929365 -0.70698261261 -0.70706921816
          -0.70661473274 -0.70735001564 -0.70661449432 -0.7068426609 -0.70661520958 -0.70735108852
          -0.7070710659 -0.70661568642 -0.70616030693 -0.74246329069 -0.74283200502 -0.74246346951
          -0.74297255278 -0.74274486303 -0.74356865883 -0.74365562201 -0.74320024252 -0.74393665791
          -0.74320036173 -0.74342811108 -0.74320036173 -0.74393713474 -0.74365597963 -0.74320077896
          -0.74274522066 -0.77905327082 -0.77942168713 -0.77905333042 -0.7795624733 -0.77933484316
          -0.78015863895 -0.78024548292 -0.77979010344 -0.78052711487 -0.77979010344 -0.7800180316
          -0.77979034185 -0.78052699566 -0.78024584055 -0.77979028225 -0.77933484316 -0.08613910526
          -0.090939238667 -0.08619710803 -0.09272672236 -0.089780665934 -0.10021302104 -0.10130255669
          -0.095614142716 -0.10479467362 -0.095604389906 -0.098495081067 -0.095647737384 -0.10487155616
          -0.10143380612 -0.095670372248 -0.089878469706 -0.087422318757 -0.088924974203 -0.093799635768
          -0.081041105092 -0.08497595787 -0.093834199011 -0.088948324323 -0.12387169898 -0.12420221418
          -0.12381875515 -0.15303771198 -0.15334071219 -0.15297397971 -0.12435867637 -0.15350230038
          -0.12420033664 -0.15336017311 -0.12486588955 -0.12502838671 -0.12456738204 -0.15399706364
          -0.15414346755 -0.15369325876 -0.12518593669 -0.15431298316 -0.1245470494 -0.15367934108
          -0.12473720312 -0.15387043357 -0.12461015582 -0.15373727679 -0.12512233853 -0.15425561368
          -0.12492761761 -0.15404883027 -0.12460703403 -0.15373979509 -0.1241139397 -0.15325890481
          -0.18339911103 -0.18370766938 -0.183343485 -0.18386475742 -0.18371407688 -0.18436330557
          -0.18450184166 -0.18405762315 -0.18468031287 -0.18404489756 -0.18423748016 -0.18409503996
          -0.18463043869 -0.18442095816 -0.18409956992 -0.18362431228 -0.21485967934 -0.21516777575
          -0.21481014788 -0.21532039344 -0.21516568959 -0.21581962705 -0.21595087647 -0.21551339328
          -0.21613581479 -0.2155020386 -0.2156945765 -0.21554671228 -0.2160911262 -0.21587820351
          -0.21555012465 -0.21508599818 -0.24728621542 -0.24759475887 -0.24724265933 -0.24774365127
          -0.24758407474 -0.24824364483 -0.2483676374 -0.24793626368 -0.24855938554 -0.24792675674
          -0.24811927974 -0.24796552956 -0.24852009118 -0.24830400944 -0.24796904624 -0.24751380086
          -0.28056156635 -0.28087076545 -0.28052338958 -0.28101566434 -0.28085181117 -0.28151631355
          -0.28163388371 -0.28120845556 -0.28183174133 -0.28120005131 -0.28139266372 -0.28123396635
          -0.28179788589 -0.28157880902 -0.281237185 -0.28079026937 -0.31457540393 -0.31488493085
          -0.31454220414 -0.31502643228 -0.31485870481 -0.31552806497 -0.31563949585 -0.3152192533
          -0.31584316492 -0.31521207094 -0.31540507078 -0.31524091959 -0.31581375003 -0.31559211016
          -0.31524407864 -0.31480529904 -0.34922561049 -0.34953591228 -0.34919762611 -0.34967440367
          -0.34950277209 -0.3501765728 -0.35028254986 -0.34986710548 -0.35049131513 -0.34986096621
          -0.35005420446 -0.34988555312 -0.35046643019 -0.35024213791 -0.34988847375 -0.34945675731
          -0.38441836834 -0.38472896814 -0.3843947947 -0.3848644495 -0.38468950987 -0.38536739349
          -0.38546794653 -0.38505718112 -0.3856819272 -0.38505211473 -0.38524526358 -0.38507258892
          -0.38566097617 -0.38543444872 -0.38507536054 -0.38465058804 -0.42006576061 -0.4203762114
          -0.42004585266 -0.42050901055 -0.42033094168 -0.42101228237 -0.42110821605 -0.42070159316
          -0.42132633924 -0.42069774866 -0.42089080811 -0.42071446776 -0.42130929232 -0.42108049989
          -0.42071685195 -0.42029857635 -0.45608723164 -0.45639804006 -0.45607087016 -0.45652830601
          -0.45634755492 -0.45703190565 -0.45712354779 -0.45672085881 -0.45734557509 -0.45671749115
          -0.45691093802 -0.4567310214 -0.45733177662 -0.45710116625 -0.45673346519 -0.45632115006
          -0.49241104722 -0.49272209406 -0.49239811301 -0.49285021424 -0.49266692996 -0.49335423112
          -0.49344193935 -0.49304273725 -0.49366781116 -0.49304032326 -0.49323359132 -0.49305072427
          -0.49365693331 -0.49342477322 -0.49305278063 -0.49264582992 -0.52897232771 -0.52928388119
          -0.52896231413 -0.52941012383 -0.52922433615 -0.52991473675 -0.52999913692 -0.52960276604
          -0.53022807837 -0.52960085869 -0.52979415655 -0.52960860729 -0.53021961451 -0.52998584509
          -0.52961045504 -0.52920800447 -0.56571495533 -0.56602674723 -0.56570744514 -0.56615114212
          -0.56596380472 -0.56665611267 -0.56673783064 -0.56634396315 -0.56696951389 -0.56634294987
          -0.56653606892 -0.56634837389 -0.56696343422 -0.5667282939 -0.56635010242 -0.56595128775
          -0.60259032249 -0.6029022336 -0.6025851965 -0.60302555561 -0.60283607244 -0.60353064537
          -0.60360968113 -0.60321813822 -0.60384362936 -0.60321730375 -0.60341072083 -0.60322123766
          -0.60383939743 -0.60360312462 -0.60322248936 -0.60282713175 -0.63955748081 -0.63986992836
          -0.63955402374 -0.63999170065 -0.63980090618 -0.64049720764 -0.64057433605 -0.64018446207
          -0.64081013203 -0.64018392563 -0.64037746191 -0.64018654823 -0.64080739021 -0.64057010412
          -0.64018750191 -0.63979494572 -0.67658400536 -0.67689651251 -0.6765820384 -0.67701745033
          -0.67682570219 -0.67752337456 -0.67759895325 -0.67721056938 -0.67783617973 -0.67721009254
          -0.67740362883 -0.67721164227 -0.67783474922 -0.67759692669 -0.67721241713 -0.6768220067
          -0.71364420652 -0.71395713091 -0.71364313364 -0.71407711506 -0.71388447285 -0.71458333731
          -0.71465790272 -0.71427029371 -0.71489626169 -0.71427053213 -0.71446365118 -0.71427094936
          -0.71489572525 -0.71465706825 -0.71427154541 -0.71388274431 -0.75071924925 -0.75103223324
          -0.75071895123 -0.75115203857 -0.75095897913 -0.75165832043 -0.75173252821 -0.75134545565
          -0.75197130442 -0.75134551525 -0.75153881311 -0.75134527683 -0.7519711256 -0.75173217058
          -0.75134587288 -0.75095832348 -0.78779810667 -0.78811115026 -0.78779792786 -0.78823065758
          -0.7880371213 -0.78873705864 -0.78881108761 -0.78842407465 -0.78905004263 -0.78842413425
          -0.78861749172 -0.78842407465 -0.78904998302 -0.78881114721 -0.78842419386 -0.78803700209
          -0.086508482695 -0.091206103563 -0.086428761482 -0.093032278121 -0.090172678232 -0.10048982501
          -0.10168207437 -0.095899447799 -0.10511194915 -0.095875605941 -0.098716251552 -0.095935724676
          -0.10502993315 -0.10155308247 -0.095926992595 -0.090070441365 -0.087486617267 -0.089028939605
          -0.093902491033 -0.081116147339 -0.085065454245 -0.093845836818 -0.088971532881 -0.045069660991
          -0.044972550124 -0.044825147837 -0.044774841517 -0.04490865767 -0.044874180108 -0.044895153493
          -0.04495088011 -0.044915802777 -0.045117676258 -0.044789358974 -0.044976640493 -0.044708862901
          -0.027878712863 -0.0278532058 -0.027674367651 -0.027578243986 -0.027697799727 -0.027669407427
          -0.027671288699 -0.027726093307 -0.02770184353 -0.027922997251 -0.027652144432 -0.027867356315
          -0.027528634295 -0.015194379725 -0.015145177022 -0.014964058995 -0.014869184233 -0.015005654655
          -0.014984641224 -0.0149800824 -0.015025869943 -0.015010409057 -0.015226908028 -0.014950113371
          -0.015156149864 -0.014835160226 -0.0065903328359 -0.0065414500423 -0.0063626272604 -0.0062665161677
          -0.006405768916 -0.0063894917257 -0.0063807605766 -0.0064173308201 -0.0064102290198 -0.0066146557219
          -0.0063569536433 -0.0065529821441 -0.0062459437177 -0.0017900164239 -0.0017265583156 -0.0014951324556
          -0.0013735292014 -0.0015486102784 -0.0015432678629 -0.0015164765064 -0.0015591341071 -0.0015536510618
          -0.0018076939741 -0.0014983298024 -0.0017397638876 -0.0013660431141 8.7156150352e-13 5.2873816436e-12
          -3.1036542694e-12 1.3940016676e-12 5.3320070798e-13 -9.0698417743e-13 -2.0281551707e-14 3.6380424227e-14
          -1.0918028532e-14 0 0 0 2.2905312494e-14
        </DataArray>
        <DataArray type="Float32" Name="uz" format="ascii" RangeMin="-0.069595985115" RangeMax="0.067973293364">
          -0.014151906595 -0.0079394541681 -0.014872047119 -0.004561394453 0.0066517088562 0.0037176439073
          0.011536656879 -0.0070769255981 0.0014541498385 0.0026336209849 0.00412474107 0.021772239357
          0.013704747893 0.015452194959 -0.022213527933 -0.01588858664 -0.0018942310708 -0.0030639893375
          -0.0020338054746 0.011366669089 0.014988629147 0.0047033489682 0.021721059456 -0.0051364530809
          -0.011818919331 -0.022189397365 -0.00020496358047 0.049571558833 0.049992706627 0.059841416776
          0.049154467881 0.049597140402 0.058990996331 0.037936363369 0.038030304015 0.035711083561
          0.035884533077 0.035459462553 0.04461614415 0.048463057727 0.035702779889 0.04445464164
          0.048143152148 0.030754001811 0.031228413805 0.040160495788 0.040185268968 0.028952222317
          0.02946135588 0.056773722172 0.056091573089 0.020484631881 0.02143211104 0.017733899876
          0.018760532141 0.023553123698 0.024260267615 0.062586806715 0.061655756086 0.049964461476
          0.050381787121 0.060615915805 0.037857819349 0.035564318299 0.035243492573 0.044735815376
          0.048766084015 0.03033374995 0.040150333196 0.028501976281 0.057386122644 0.019682524726
          0.016847299412 0.022914920002 0.063450351357 0.050310295075 0.050718244165 0.061305787414
          0.03778367117 0.035429801792 0.035050991923 0.04484308511 0.049029428512 0.029962809756
          0.040136482567 0.028100587428 0.057926435024 0.01896898821 0.016059191898 0.022347448394
          0.064213760197 0.050613027066 0.051014646888 0.061909537762 0.037718378007 0.035311188549
          0.034881267697 0.0449379161 0.049261167645 0.029635591432 0.040124565363 0.027747433633
          0.058401621878 0.018340479583 0.015364818275 0.021848021075 0.064883470535 0.050875533372
          0.051271762699 0.062434915453 0.037659902126 0.035206016153 0.034733079374 0.045020371675
          0.04946283251 0.029350515455 0.040113192052 0.027438368648 0.058816105127 0.017792366445
          0.014758555219 0.021410888061 0.065467111766 0.051100138575 0.051492746919 0.062887378037
          0.037607818842 0.035112503916 0.034605056047 0.045092724264 0.04963690415 0.029104856774
          0.040102563798 0.027170524001 0.059174485505 0.017318636179 0.014234031551 0.021031405777
          0.065970636904 0.051289081573 0.051680464298 0.063271991909 0.03756146878 0.035029809922
          0.034495271742 0.04515530169 0.049785263836 0.028895948082 0.04009264335 0.026940634474
          0.05948105827 0.016914011911 0.013784169219 0.020704777911 0.066400296986 0.051445953548
          0.051837384701 0.06359513849 0.037520635873 0.034957431257 0.03440277651 0.045209154487
          0.049910530448 0.028720336035 0.040083464235 0.026745535433 0.059740442783 0.016572186723
          0.013403800316 0.020426761359 0.066762410104 0.051574647427 0.051966875792 0.063862346113