<VTKFile type="UnstructuredGrid" version="1.0" byte_order="LittleEndian" header_type="UInt64">
  <UnstructuredGrid>
    <Piece NumberOfPoints="791" NumberOfCells="973">
      <PointData>
        <DataArray type="Float32" Name="ux" format="ascii" RangeMin="-0.87173765898" RangeMax="0.70142835379">
          0.027619555593 -0.018796155229 0.054664433002 0.036051739007 0.025914652273 0.057435084134
          -0.017115004361 -0.045173496008 -0.11276023835 -0.10373742133 -0.05576942116 -0.11869662255
          -0.045737706125 -0.10275495052 0.10453165323 0.085326783359 0.10822240263 0.0849577263
          -0.046838406473 -0.1203668192 -0.048219941556 -0.10646346211 -0.11358128488 0.14131267369
          0.10488260537 0.13155505061 -0.010047356598 0.11966441572 0.039644587785 0.012081283145
          0.12838709354 0.053413894027 0.028288157657 0.13543829322 0.14262337983 0.2072032094
          0.20998738706 0.038740128279 -0.070689961314 -0.018902769312 0.053558845073 -0.051113989204
          -0.0012317430228 0.011594898067 0.027409136295 0.065550759435 0.078232377768 0.1338544786
          0.14198945463 -0.10268850625 -0.08096922189 0.11353353411 0.12343370914 0.1998398304
          0.20454978943 0.23698394001 0.2375228852 -0.072308167815 -0.050762012601 0.10213347524
          0.01275994163 -0.015651818365 0.11748747528 0.19705609977 0.0094255264848 -0.10768325627
          -0.051596131176 -0.020383093506 0.040160506964 0.11281383038 -0.14207841456 0.090435564518
          0.18603210151 0.22821933031 -0.10790036619 0.058912511915 -0.038123063743 -0.069280810654
          0.076307855546 0.16101826727 -0.040522195399 -0.16898402572 -0.10717651993 -0.071822538972
          -0.0077617261559 0.070905953646 -0.20694495738 0.04644889012 0.14913152158 0.19523653388
          -0.17124949396 -0.018866574392 -0.12423089892 -0.15806129575 -0.0015801212285 0.091016277671
          -0.12758131325 -0.26554626226 -0.20048543811 -0.16148640215 -0.092321529984 -0.0061032869853
          -0.30784186721 -0.032177768648 0.078264370561 0.12677358091 -0.26820212603 -0.10252459347
          -0.22032542527 -0.25689694285 -0.084141403437 0.016479024664 -0.22464855015 -0.38280376792
          -0.30775004625 -0.26193380356 -0.18527767062 -0.088635742664 -0.43045654893 -0.11461570859
          0.006076217629 0.056256320328 -0.38427260518 -0.18647502363 -0.31029319763 -0.34812822938
          -0.1653329879 -0.059160672128 -0.31275829673 -0.48281568289 -0.40221470594 -0.351885885
          -0.27174684405 -0.16741967201 -0.53315037489 -0.19231511652 -0.063471347094 -0.013360600919
          -0.48079177737 -0.2108169347 -0.33406484127 -0.37246438861 -0.18667382002 -0.080485619605
          -0.33333656192 -0.51128470898 -0.42691379786 -0.3737898767 -0.29315444827 -0.18496395648
          -0.56307250261 -0.20735609531 -0.076219663024 -0.028446130455 -0.50813573599 -0.16500404477
          -0.29955536127 -0.34280571342 -0.13721004128 -0.021234514192 -0.29912725091 -0.49516633153
          -0.40198794007 -0.34506550431 -0.25519019365 -0.13570992649 -0.54984211922 -0.16088975966
          -0.015384932049 0.036353837699 -0.48965832591 -0.068407557905 -0.21951118112 -0.26569232345
          -0.039266295731 0.090717971325 -0.22388668358 -0.43995830417 -0.33451288939 -0.2760002017
          -0.17224659026 -0.039958979934 -0.49821576476 -0.071840204298 0.092662587762 0.15334095061
          -0.43054607511 0.046132896096 -0.11587230861 -0.16691789031 0.078586220741 0.21917001903
          -0.1202943176 -0.35374724865 -0.23955564201 -0.17753589153 -0.063215769827 0.078164063394
          -0.41587790847 0.043959543109 0.22122906148 0.28619924188 -0.34290659428 0.18839633465
          0.012964231893 -0.042392920703 0.22452305257 0.37769210339 0.0078179994598 -0.24570477009
          -0.12101766467 -0.054932702333 0.070668570697 0.22535634041 -0.31078347564 0.18749658763
          0.38362246752 0.45365136862 -0.2324552536 0.32148468494 0.1351197809 0.073870033026
          0.36270275712 0.52602124214 0.12877582014 -0.14576171339 -0.009627904743 0.058167967945
          0.19552183151 0.36260393262 -0.21595957875 0.32035848498 0.5335174799 0.61057782173
          -0.12962579727 0.39352080226 0.19926668704 0.13332100213 0.43850755692 0.61031520367
          0.1975698173 -0.086129166186 0.051426384598 0.12825863063 0.26523163915 0.44010281563
          -0.16201785207 0.39769634604 0.61668413877 0.69744926691 -0.077094346285 0.40179154277
          0.20509520173 0.1379160732 0.4447747767 0.61771976948 0.20399300754 -0.077642679214
          0.057273678482 0.13405230641 0.27097734809 0.44540527463 -0.1554864943 0.4011592567
          0.61891156435 0.70142835379 -0.073001734912 0.34684443474 0.15744574368 0.094674788415
          0.3863325417 0.55331474543 0.15509520471 -0.11148945242 0.016396503896 0.088754981756
          0.22055225074 0.38368776441 -0.18818324804 0.34074422717 0.5493131876 0.63165515661
          -0.10890202224 0.24889945984 0.066474355757 0.003673380008 0.28819936514 0.44979315996
          0.064403317869 -0.19505423307 -0.070650517941 -0.00010697130347 0.12727105618 0.2880667448
          -0.26702049375 0.24581356347 0.44915682077 0.52655810118 -0.19167473912 0.085868857801
          -0.093558624387 -0.15424661338 0.12469083816 0.28214162588 -0.094798602164 -0.34932851791
          -0.22794544697 -0.15691120923 -0.033577743918 0.12353069335 -0.42170858383 0.083980329335
          0.28188487887 0.35813578963 -0.34748241305 -0.12628516555 -0.30930408835 -0.3707755506
          -0.089320518076 0.070143438876 -0.31161731482 -0.57013982534 -0.44681385159 -0.37415853143
          -0.24866463244 -0.089952304959 -0.64453238249 -0.12969264388 0.068801090121 0.14552696049
          -0.56821340322 -0.35573390126 -0.53815442324 -0.59927606583 -0.31748205423 -0.15820460021
          -0.538436234 -0.79749435186 -0.67487245798 -0.60037112236 -0.47739359736 -0.31719961762
          -0.87173765898 -0.35463020205 -0.15768004954 -0.082009941339 -0.79614818096 0.076913356781
          0.024409350008 -0.0066626900807 0.10396314412 0.15459242463 0.039784789085 -0.0493154414
          -0.014419921674 0.024962952361 0.054133344442 0.11514178663 -0.082673698664 0.11050830036
          0.17490965128 0.1924533993 -0.065975882113 0.010487193242 -0.069260217249 0.0067362375557
          0.015090339817 0.075213551521 0.086037732661 0.13820210099 0.10244648159 0.076254114509
          0.069672994316 0.09845803678 0.075687155128 0.067334361374 0.10745827109 0.1045409739
          0.12966229022 0.12626981735 0.073449276388 0.034794863313 0.056197680533 0.073200814426
          0.034882109612 0.055569406599 0.061681788415 0.062464330345 0.084180243313 0.083585515618
          0.10703855753 0.10529090464 0.028405772522 0.028429422528 0.098268598318 0.098375670612
          0.12911814451 0.12748518586 0.14070795476 0.13792896271 0.042053833604 0.04136583209
          0.070989981294 0.044276308268 0.035510219634 0.078507870436 0.10291535407 0.04218941927
          -0.0016050287522 0.02152485773 0.030216379091 0.053268581629 0.07919498533 -0.011457053944
          0.071896530688 0.10629472882 0.11739515513 0.0036488603801 0.0041938512586 -0.018688581884
          -0.026063945144 0.012399588712 0.032250691205 -0.019233142957 -0.061140615493 -0.039715312421
          -0.031381241977 -0.0095692435279 0.015345056541 -0.067827671766 0.010600426234 0.041873641312
          0.048028234392 -0.053283911198 -0.067040763795 -0.085950128734 -0.090815745294 -0.063126176596
          -0.047775287181 -0.087791882455 -0.118740879 -0.10186237097 -0.09532969445 -0.07947550714
          -0.061754006892 -0.12419944257 -0.064485050738 -0.042303878814 -0.036141071469 -0.11181458831
          -0.12310162187 -0.1343678683 -0.1365109235 -0.12218931317 -0.1122924611 -0.13593387604
          -0.15471214056 -0.14432899654 -0.14087925851 -0.13126596808 -0.12258877605 -0.15944899619
          -0.12490262091 -0.11264447868 -0.10715999454 -0.15186731517 -0.16050861776 -0.17440490425
          -0.1784478575 -0.1591103524 -0.1463098079 -0.17327086627 -0.18946494162 -0.18265265226
          -0.17707638443 -0.16985030472 -0.15966548026 -0.19582033157 -0.16312308609 -0.15125212073
          -0.14435753226 -0.1916410327 -0.17576079071 -0.191558972 -0.19440686703 -0.17773142457
          -0.16500927508 -0.19055877626 -0.20045779645 -0.19776980579 -0.19177787006 -0.18820747733
          -0.18007963896 -0.20740695298 -0.18362022936 -0.1753063947 -0.16668222845 -0.20655585825
          -0.16732130945 -0.18323415518 -0.18703429401 -0.16848041117 -0.15493875742 -0.18501204252
          -0.19735883176 -0.19261740148 -0.18697711825 -0.18091708422 -0.17298234999 -0.20550273359
          -0.17780517042 -0.16695509851 -0.15719813108 -0.20274943113 -0.14440968633 -0.15578773618
          -0.15857924521 -0.14483475685 -0.13523541391 -0.15780597925 -0.16770718992 -0.16302610934
          -0.16034321487 -0.15310500562 -0.14761304855 -0.17308366299 -0.15110062063 -0.1424266547
          -0.13505496085 -0.17057733238 -0.13348934054 -0.13525800407 -0.13660439849 -0.13316382468
          -0.13040645421 -0.13652150333 -0.13655948639 -0.13665474951 -0.13767014444 -0.13573880494
          -0.13397064805 -0.13623723388 -0.13558807969 -0.13191995025 -0.13045708835 -0.13641260564
          -0.13316819072 -0.12975308299 -0.1279655993 -0.13282190263 -0.13640408218 -0.13195158541
          -0.12949390709 -0.12927368283 -0.13264860213 -0.13079480827 -0.13323996961 -0.1266130954
          -0.13442608714 -0.13489499688 -0.13685333729 -0.12537327409 -0.13817410171 -0.15085433424
          -0.15355956554 -0.13509443402 -0.12507656217 -0.15337960422 -0.17908295989 -0.16429914534
          -0.16159212589 -0.14672131836 -0.13440160453 -0.18190920353 -0.13686078787 -0.11970029771
          -0.11762347817 -0.16987641156 -0.13208176196 -0.17674642801 -0.19033020735 -0.12411089987
          -0.086928039789 -0.17993400991 -0.24754080176 -0.21333689988 -0.19600254297 -0.16297926009
          -0.12350995839 -0.26356005669 -0.13076505065 -0.082172229886 -0.066541865468 -0.23968158662
          -0.10779713094 -0.17031382024 -0.18851523101 -0.095528133214 -0.044489260763 -0.17184685171
          -0.26530939341 -0.21951341629 -0.19313336909 -0.15036013722 -0.094921857119 -0.28999054432
          -0.10563291609 -0.039548438042 -0.017881793901 -0.25947886705 -0.043096005917 -0.11560241878
          -0.13903799653 -0.027929760516 0.034386064857 -0.11456115544 -0.21809209883 -0.16942568123
          -0.13758125901 -0.090874694288 -0.026551991701 -0.24828417599 -0.039344351739 0.03786803782
          0.064964666963 -0.21720533073 0.059972237796 -0.017669804394 -0.043325833976 0.076693415642
          0.14371848106 -0.013994430192 -0.12734979391 -0.074895642698 -0.038821220398 0.010453260504
          0.079733632505 -0.16131061316 0.067472405732 0.14971119165 0.17877081037 -0.12800195813
          0.19242930412 0.10724669695 0.07874801755 0.21001127362 0.28386768699 0.10897195339
          -0.011952995323 0.044019345194 0.082367971539 0.13726677001 0.21206372976 -0.049110986292
          0.1969550699 0.2874917388 0.31984269619 -0.013470600359 0.34113806486 0.2496779263
          0.21857723594 0.36074191332 0.44052585959 0.2512139678 0.11982584 0.18158838153
          0.22122456133 0.28149092197 0.3630836606 0.082001753151 0.34573462605 0.44442036748
          0.4804494381 0.11979872733 0.4958358109 0.4010399878 0.36995100975 0.51540291309
          0.59752970934 0.40017017722 0.26709643006 0.32985946536 0.36937490106 0.43254840374
          0.51453340054 0.22843310237 0.49540963769 0.59779500961 0.63748908043 0.26680260897
          0.052954249084 0.021640373394 -0.0024875104427 0.075735539198 0.10697208345 0.039527434856
          -0.016327256337 0.00060050358297 0.032853186131 0.045138616115 0.086221829057 -0.043011311442
          0.086651697755 0.12602736056 0.13452875614 -0.038087558001 0.0097338296473 -0.062517225742
          0.0079713705927 0.014174858108 0.069980233908 0.078521318734 0.12443500757 -0.12118978798
          -0.15890604258 -0.12529703975 -0.030950479209 -0.045093618333 -0.028739811853 0.024997282773
          0.082998715341 0.093597479165 0.16981546581 0.16504050791 0.199089095 0.081283986568
          -0.061240687966 -0.096458569169 -0.060762070119 0.03707337752 0.021133683622 0.031662866473
          0.095259390771 0.15757460892 0.16928654909 0.25338700414 0.24762605131 0.28720241785
          0.15005539358 -0.02405013144 -0.057737536728 -0.021473824978 0.070537507534 0.056414101273
          0.065660297871 0.12785881758 0.18440288305 0.19714482129 0.27453938127 0.27027255297
          0.30643042922 0.17820723355 -0.014624027535 -0.041009686887 -0.012262431905 0.061313711107
          0.04850487411 0.054433695972 0.1044517085 0.1514416337 0.15838719904 0.22012735903
          0.21333536506 0.24380201101 0.14100973308 -0.026629311964 -0.04014678672 -0.019676201046
          0.025565903634 0.011818032712 0.014690008014 0.045521400869 0.078913673759 0.078382685781
          0.11482375115 0.11040390283 0.12735445797 0.067970722914 6.947368375e-11 -1.3584428027e-09
          -5.7497947376e-11 1.6852297552e-12 4.9351260925e-12 1.5480162291e-11 8.9318942867e-12 -7.7260095023e-13
          3.6770516102e-13 0 0 0 -1.6465141967e-12
        </DataArray>
        <DataArray type="Float32" Name="uy" format="ascii" RangeMin="-1.4480887651" RangeMax="1.8752570152">
          -0.049328390509 0.00074544892414 0.023620441556 0.059654843062 0.18168154359 0.21432617307
          0.20880721509 -0.050384297967 -0.010972968303 0.0023565900046 0.061025716364 0.2077178359
          0.18444830179 0.14683349431 -0.0071889683604 0.0029338798486 0.19942121208 0.14227846265
          0.053872842342 0.093575008214 0.22963523865 0.054429747164 0.22981120646 0.22629141808
          0.090759821236 0.060378100723 0.055640976876 0.9300480485 0.84893912077 0.929944098
          0.86340367794 0.78620475531 0.86308211088 0.81546115875 0.75449937582 0.86570823193
          0.80202633142 0.68671733141 0.66899639368 0.76826238632 0.63343054056 0.61741429567
          0.71063274145 0.60726487637 0.55842071772 0.76691478491 0.70839518309 0.71486061811
          0.65867894888 0.76825720072 0.71060717106 0.60474097729 0.55565667152 0.66189020872
          0.60994255543 0.76242691278 0.70336103439 0.86825591326 0.80414301157 0.95750254393
          0.8685951829 0.95819604397 0.83327805996 0.88536733389 0.69236379862 0.67466801405
          0.78121078014 0.6069290638 0.77944922447 0.72224807739 0.78202748299 0.60200917721
          0.66456657648 0.77229213715 0.89028406143 0.92648804188 0.83139979839 0.92858457565
          0.79036206007 0.84896439314 0.63952243328 0.61933207512 0.73627585173 0.54718476534
          0.73387211561 0.6710793376 0.73629516363 0.54181116819 0.60789734125 0.72490644455
          0.85380840302 0.81891381741 0.71542680264 0.82066243887 0.67297369242 0.73411762714
          0.50912433863 0.48413565755 0.6119645834 0.40758788586 0.61157685518 0.54432368279
          0.60958278179 0.40348571539 0.47617274523 0.60187190771 0.73943543434 0.60241681337
          0.48806029558 0.60595321655 0.44194129109 0.50866723061 0.25735720992 0.22767232358
          0.37183329463 0.14284165204 0.37183865905 0.30019435287 0.36852055788 0.14229270816
          0.22646643221 0.365591079 0.51438003778 0.26917004585 0.14820736647 0.27290806174
          0.098822303116 0.17246051133 -0.098511636257 -0.12931112945 0.025025295094 -0.22246621549
          0.024347603321 -0.051840081811 0.025324987248 -0.22124032676 -0.12765005231 0.021310044453
          0.17907214165 -0.098220214248 -0.22219420969 -0.09419965744 -0.27220451832 -0.19480840862
          -0.47946494818 -0.50975251198 -0.348590523 -0.60823714733 -0.35064822435 -0.42942818999
          -0.34774559736 -0.60564577579 -0.50578981638 -0.35015788674 -0.18773964047 -0.3954899013
          -0.53193479776 -0.39200127125 -0.58614122868 -0.50050187111 -0.81111526489 -0.84236121178
          -0.66956722736 -0.95205205679 -0.67164129019 -0.75766181946 -0.66532891989 -0.95070707798
          -0.84077697992 -0.66940438747 -0.49402087927 -0.60216778517 -0.75459063053 -0.59957116842
          -0.81325316429 -0.71622592211 -1.0646123886 -1.0980529785 -0.90801823139 -1.2206842899
          -0.9092207551 -1.003472209 -0.90261590481 -1.2197301388 -1.0983819962 -0.90435266495
          -0.71349513531 -0.71278560162 -0.87538838387 -0.70862215757 -0.94075280428 -0.83908361197
          -1.2073278427 -1.2417447567 -1.0379115343 -1.3745566607 -1.0422114134 -1.1448107958
          -1.0322856903 -1.3752582073 -1.2454435825 -1.040712595 -0.82950216532 -0.72139704227
          -0.89913326502 -0.72008275986 -0.9686614275 -0.85575544834 -1.2616214752 -1.2987426519
          -1.0770603418 -1.4451084137 -1.0801100731 -1.1928149462 -1.0709489584 -1.4480887651
          -1.3049635887 -1.0767188072 -0.85098809004 -0.61004406214 -0.80321347713 -0.61085706949
          -0.87804293633 -0.75321215391 -1.1990969181 -1.2394763231 -0.99790334702 -1.3982948065
          -0.99988675117 -1.1229404211 -0.99098241329 -1.4013550282 -1.2457231283 -0.99566078186
          -0.75377309322 -0.35985696316 -0.56356108189 -0.36152744293 -0.64114111662 -0.51221001148
          -0.97343111038 -1.0152410269 -0.76477301121 -1.1791353226 -0.76850765944 -0.89650070667
          -0.76012599468 -1.1831599474 -1.0253968239 -0.76685518026 -0.51196837425 -0.020876960829
          -0.22340448201 -0.021637534723 -0.30166092515 -0.17501269281 -0.62887603045 -0.67233270407
          -0.42471274734 -0.83195984364 -0.42605435848 -0.55348402262 -0.42134892941 -0.83606338501
          -0.68084025383 -0.4276099503 -0.17454592884 0.33361461759 0.13709637523 0.33337935805
          0.062142014503 0.18390716612 -0.25444322824 -0.29663577676 -0.057898733765 -0.44739589095
          -0.059276562184 -0.18232023716 -0.055884622037 -0.45166993141 -0.30472350121 -0.061040181667
          0.18492208421 0.68834280968 0.49970531464 0.68677431345 0.42741018534 0.54449498653
          0.12378971279 0.082268662751 0.3124101758 -0.064640328288 0.31035757065 0.19285731018
          0.31483638287 -0.06817304343 0.074410252273 0.30973896384 0.54358798265 1.0743350983
          0.88819277287 1.0720124245 0.81802213192 0.93405979872 0.5181081295 0.47623291612
          0.70385992527 0.33290013671 0.70316421986 0.58734166622 0.70427823067 0.33012577891
          0.4712254107 0.70243161917 0.93064785004 1.4808082581 1.2928011417 1.4803650379
          1.2212487459 1.3366202116 0.91808843613 0.87349522114 1.1047410965 0.7310513258
          1.105256319 0.98971188068 1.1041526794 0.73022252321 0.87333387136 1.1052933931
          1.3368455172 1.8752570152 1.6885150671 1.8747239113 1.6163470745 1.7324748039
          1.3141616583 1.2700253725 1.5017743111 1.1264814138 1.5011657476 1.3860752583
          1.501838088 1.1259068251 1.2693578005 1.5001844168 1.7323571444 0.58957600594
          0.5553894043 0.59118556976 0.53971225023 0.56044840813 0.48502531648 0.48015290499
          0.52231425047 0.45048829913 0.51933515072 0.495416224 0.52386844158 0.44593498111
          0.47037240863 0.51443552971 0.56547999382 0.24711544812 0.25253805518 0.26708424091
          0.2277366966 0.2394579947 0.26668047905 0.2526999712 0.023734305054 0.047431398183
          0.023640010506 0.11746238917 0.1433699131 0.11763670295 0.05798914656 0.15432670712
          0.042266897857 0.13745197654 0.098803147674 0.1020186767 0.070936404169 0.19667491317
          0.19979013503 0.16809688509 0.12598749995 0.2233941853 0.072774328291 0.1706507802
          0.090440876782 0.18815305829 0.06897867471 0.1662915647 0.12906691432 0.22573308647
          0.10953649879 0.20633910596 0.074825920165 0.17206838727 0.040902700275 0.13538517058
          0.17307092249 0.2028259784 0.17378859222 0.21308784187 0.19335334003 0.26522305608
          0.27017185092 0.23272572458 0.29623916745 0.23318426311 0.25187474489 0.23082987964
          0.29673743248 0.27158531547 0.23006278276 0.19488874078 0.1943166852 0.21872502565
          0.19446721673 0.2281023711 0.21067051589 0.27246317267 0.27808651328 0.2435092479
          0.3039893508 0.24450440705 0.26078033447 0.24153536558 0.30297461152 0.27747189999
          0.24164254963 0.21022216976 0.13013882935 0.14804799855 0.12962129712 0.15552288294
          0.14232680202 0.18959626555 0.19288520515 0.16745743155 0.21182838082 0.16835172474
          0.18014930189 0.1635979116 0.21143585443 0.1916936636 0.16468518972 0.1406737715
          -0.015353433788 -0.0040642633103 -0.017558332533 0.0011029883754 -0.007402270101 0.024642664939
          0.02810510993 0.010985280387 0.038073502481 0.0099258599803 0.018551172689 0.0089667877182
          0.037506446242 0.026225555688 0.0090090651065 -0.0084109548479 -0.19992351532 -0.18854643404
          -0.20142437518 -0.18134625256 -0.18675602973 -0.16349981725 -0.15875427425 -0.17610487342
          -0.15149249136 -0.17557498813 -0.16698054969 -0.17521090806 -0.15184776485 -0.15856684744
          -0.17040008307 -0.19124630094 -0.31204730272 -0.30086010695 -0.3140745461 -0.29429322481
          -0.29781144857 -0.28235402703 -0.2786628902 -0.29121646285 -0.27519413829 -0.2901481092
          -0.28290361166 -0.28694155812 -0.27399709821 -0.27533382177 -0.28245490789 -0.30185902119
          -0.31010475755 -0.29741644859 -0.31175044179 -0.29070952535 -0.29547476768 -0.27354121208
          -0.26887601614 -0.28401863575 -0.26407191157 -0.28426617384 -0.27675789595 -0.28125688434
          -0.26370260119 -0.2680799067 -0.27916562557 -0.29932886362 -0.20484960079 -0.19511075318
          -0.20644344389 -0.19052274525 -0.19441846013 -0.17574316263 -0.17251718044 -0.18474277854
          -0.16770467162 -0.18505223095 -0.17897051573 -0.18175527453 -0.16707967222 -0.17085267603
          -0.18109560013 -0.19629007578 -0.013623028062 -0.011428551748 -0.012560650706 -0.012601387687
          -0.013087320141 -0.010321559384 -0.01124059502 -0.011068889871 -0.010261583142 -0.011918157339
          -0.011125643738 -0.010304104537 -0.0085296053439 -0.0078777233139 -0.011077056639 -0.010387763381
          0.19021745026 0.18772214651 0.18979395926 0.18518082798 0.18672531843 0.18102507293
          0.17869201303 0.18347801268 0.17832450569 0.18353588879 0.18097564578 0.18151766062
          0.1782567203 0.17855404317 0.18039159477 0.18559280038 0.29625597596 0.30762773752
          0.29372543097 0.31373596191 0.30499559641 0.33796957135 0.33912721276 0.32029765844
          0.35536623001 0.32248103619 0.33138552308 0.31618767977 0.35453990102 0.33870905638
          0.31955996156 0.29960140586 0.26901984215 0.31406411529 0.26744392514 0.33236837387
          0.30263525248 0.40844705701 0.41671451926 0.35994982719 0.45609691739 0.36159443855
          0.38949465752 0.35545575619 0.45523607731 0.41548481584 0.3570728898 0.29899457097
          0.16534887254 0.22758768499 0.16363024712 0.25122728944 0.21155294776 0.35567256808
          0.37044873834 0.29095992446 0.42164739966 0.29066675901 0.32847893238 0.28886973858
          0.41883718967 0.36614528298 0.28706026077 0.20997707546 0.020033750683 0.09338119626
          0.019019883126 0.12125710398 0.074600361288 0.24197240174 0.26021051407 0.16710315645
          0.31714394689 0.16691306233 0.21119013429 0.16706264019 0.31433045864 0.25558489561
          0.16458183527 0.075246430933 -0.13234822452 -0.052338231355 -0.13156220317 -0.022660085931
          -0.072527572513 0.11131568998 0.13249778748 0.029251933098 0.19547438622 0.028098577634
          0.078231364489 0.029184831306 0.19223468006 0.12723770738 0.026067242026 -0.071095399559
          -0.30251020193 -0.21524436772 -0.30245891213 -0.18381287158 -0.23764365911 -0.039982549846
          -0.017105538398 -0.12728966773 0.050088275224 -0.12799656391 -0.074931994081 -0.12723088264
          0.047439489514 -0.023132538423 -0.13183997571 -0.23534244299 -0.5062071085 -0.41361555457
          -0.50650262833 -0.37802252173 -0.43488639593 -0.22528478503 -0.20164515078 -0.3199763
          -0.12934994698 -0.31997576356 -0.26183873415 -0.32045996189 -0.12904499471 -0.20422106981
          -0.31973212957 -0.43554461002 -0.70408189297 -0.60639101267 -0.70343822241 -0.56993591785
          -0.63041812181 -0.41261032224 -0.3890633285 -0.5090328455 -0.31594386697 -0.50915670395
          -0.44953647256 -0.50805181265 -0.31568366289 -0.38938945532 -0.50949239731 -0.62922996283
          -0.13316144049 -0.077500410378 -0.13413652778 -0.054884575307 -0.088913358748 0.032770201564
          0.044232528657 -0.02303602919 0.087564155459 -0.021653883159 0.014155134559 -0.023499190807
          0.09000505507 0.049466356635 -0.018511647359 -0.091310344636 0.10739963502 0.119431898
          0.15856838226 0.05481915921 0.090345203876 0.15989917517 0.12427601963 0.04146245122
          -0.064675249159 -0.17093703151 -0.23608630896 -0.064724333584 0.10413851589 -0.064675249159
          -0.23296745121 -0.063894204795 -0.1648016125 0.039233207703 -0.06169738993 0.10171797872
          0.02128855139 -0.089039035141 -0.20165260136 -0.27371010184 -0.090807408094 0.089362904429
          -0.090641275048 -0.27451002598 -0.090903036296 -0.20338268578 0.023586230353 -0.089246533811
          0.09081890434 0.018065733835 -0.088706582785 -0.19377659261 -0.25951391459 -0.087505415082
          0.085212886333 -0.086736820638 -0.25865858793 -0.085353121161 -0.19141551852 0.022962450981
          -0.083255700767 0.086945474148 0.020080436021 -0.062271974981 -0.14511343837 -0.19697917998
          -0.061566594988 0.072329826653 -0.061576709151 -0.19581694901 -0.060947012156 -0.14382098615
          0.022810932249 -0.059349190444 0.073565587401 0.01543590799 -0.033135648817 -0.080495223403
          -0.10569027066 -0.030330315232 0.046881400049 -0.028561254963 -0.10100612044 -0.027754412964
          -0.070329554379 0.016720786691 -0.026597872376 0.046147208661 -2.1245054327e-11 -1.4324777475e-11
          3.8895501403e-11 -6.0568264813e-12 1.4875965043e-11 1.7669177753e-12 3.0204189844e-12 -1.9686997258e-12
          9.1021428675e-13 0 0 0 -1.7802005529e-12
        </DataArray>
        <DataArray type="Float32" Name="uz" format="ascii" RangeMin="-0.59200996161" RangeMax="0.35937511921">
          0.11270124465 0.078724473715 0.12729363143 0.10135681927 0.077847369015 0.081979185343
          0.044103849679 0.067918166518 0.019439093769 0.028016429394 0.050854574889 -0.014028924517
          0.03806078434 0.012130478397 0.17316509783 0.14176978171 0.11452898383 0.12002063543
          0.050069004297 0.0056657614186 0.016441240907 0.0080047696829 -0.020295683295 0.12576366961
          0.14516207576 0.18106608093 0.076570853591 -0.05998596549 -0.071164280176 -0.069899193943
          -0.053721532226 -0.067438289523 -0.074257262051 -0.063561327755 -0.046225078404 -0.05413043499
          -0.033118717372 -0.077205322683 -0.091047815979 -0.079797372222 -0.057625871152 -0.083472900093
          -0.075992561877 -0.086038917303 -0.060266233981 -0.071360521019 -0.057289641351 -0.066904969513
          -0.038305588067 -0.089492499828 -0.095129966736 -0.074007637799 -0.033915441483 -0.061856050044
          -0.018296670169 -0.05436141789 -0.019281934947 -0.080813042819 -0.091452606022 -0.078542746603
          -0.08189547807 -0.070883408189 -0.092947177589 -0.092239059508 -0.10188473016 -0.098939739168
          -0.088806152344 -0.10940595716 -0.094027295709 -0.10478198528 -0.085795931518 -0.1159330532
          -0.11510397494 -0.10619589686 -0.073473520577 -0.10015659779 -0.095151029527 -0.069919541478
          -0.13054743409 -0.13866646588 -0.13240034878 -0.1066294983 -0.097635798156 -0.14355696738
          -0.12175888568 -0.15330655873 -0.074640616775 -0.17261885107 -0.18352247775 -0.17124941945
          -0.060009092093 -0.13028600812 -0.10690316558 -0.067393861711 -0.17478941381 -0.19988647103
          -0.15784329176 -0.095672279596 -0.095838926733 -0.16733418405 -0.14836996794 -0.20655214787
          -0.044056609273 -0.23062701523 -0.2630699873 -0.25144588947 -0.033717952669 -0.17007225752
          -0.11894538254 -0.068029865623 -0.21933932602 -0.27134183049 -0.16592210531 -0.063133694232
          -0.085321098566 -0.16446532309 -0.1675825417 -0.24898982048 -0.0018673302839 -0.26721644402
          -0.33129513264 -0.33272990584 -0.0044523547404 -0.21641258895 -0.13942053914 -0.092075556517
          -0.25534233451 -0.32804054022 -0.16472800076 -0.034298289567 -0.083433769643 -0.14594978094
          -0.18314944208 -0.27133157849 0.0196842812 -0.27192428708 -0.36372750998 -0.38400325179
          -0.0031170856673 -0.25463023782 -0.16399107873 -0.13589516282 -0.27022594213 -0.35072165728
          -0.15885823965 -0.029618980363 -0.095339201391 -0.12491382658 -0.19181129336 -0.26861578226
          0.0030830325559 -0.24654066563 -0.3464590013 -0.38588243723 -0.038182899356 -0.27574834228
          -0.1855597645 -0.17858998477 -0.26695531607 -0.34092655778 -0.15388511121 -0.04577357322
          -0.11448150873 -0.11342141777 -0.19315464795 -0.24829465151 -0.035100717098 -0.21250604093
          -0.30288562179 -0.35125622153 -0.08670732379 -0.28669261932 -0.21186569333 -0.22275240719
          -0.26058980823 -0.31934529543 -0.16001008451 -0.084988184273 -0.1491176784 -0.11892088503
          -0.20186425745 -0.229232952 -0.097392104566 -0.18462067842 -0.25662326813 -0.30793508887
          -0.15050382912 -0.29672917724 -0.24250917137 -0.26671737432 -0.25895562768 -0.29913237691
          -0.17904925346 -0.14007617533 -0.19448693097 -0.13879415393 -0.21859206259 -0.21978861094
          -0.17177155614 -0.17033092678 -0.22045665979 -0.2703371346 -0.22038803995 -0.30144810677
          -0.27382797003 -0.31061968207 -0.25313404202 -0.26979446411 -0.20871268213 -0.20714724064