<VTKFile type="UnstructuredGrid" version="1.0" byte_order="LittleEndian" header_type="UInt64">
  <UnstructuredGrid>
    <Piece NumberOfPoints="791" NumberOfCells="973">
      <PointData>
        <DataArray type="Float32" Name="ux" format="ascii" RangeMin="-0.38724502921" RangeMax="0.32500517368">
          0.065704375505 0.092500984669 0.063359066844 0.060855738819 0.064440026879 0.062754049897
          0.091760754585 0.094911254942 0.13212551177 0.11897817999 0.096755377948 0.13089951873
          0.093653731048 0.11853387207 0.03486347571 0.042321290821 0.033462215215 0.041826799512
          0.11521934718 0.13110657036 0.11534897238 0.1428976357 0.1430311501 0.032344784588
          0.034283217043 0.032490737736 0.078271642327 0.13273517787 0.15669950843 0.16468700767
          0.10824599117 0.13245755434 0.14050845802 0.1277038753 0.1030491218 0.10681650788
          0.081866249442 0.1566811949 0.19079662859 0.17464497685 0.13251030445 0.1673078239
          0.15071055293 0.16472758353 0.14082291722 0.14866285026 0.12431044132 0.12758207321
          0.10286315531 0.20063360035 0.17712250352 0.13241834939 0.10780740529 0.10642617941
          0.081259265542 0.096704185009 0.071460135281 0.19059427083 0.16679397225 0.15684881806
          0.18042752147 0.18824875355 0.15195810795 0.13142374158 0.18041938543 0.21389818192
          0.19807443023 0.1882866621 0.17254847288 0.15187622607 0.22360448539 0.15663790703
          0.13117155433 0.12158244848 0.21376805007 0.17985677719 0.20306156576 0.21077999473
          0.17508327961 0.15487581491 0.20302647352 0.23588468134 0.22038900852 0.21071496606
          0.19531451166 0.17501686513 0.24549104273 0.17968925834 0.15471278131 0.14527074993
          0.23585893214 0.20138333738 0.22419898212 0.23176059127 0.19674177468 0.17689156532
          0.22417524457 0.25639894605 0.24122057855 0.2316955179 0.21660861373 0.19670715928
          0.26586613059 0.20128500462 0.17679998279 0.16751532257 0.2564226985 0.22085654736
          0.24326844513 0.25066301227 0.21633057296 0.19685572386 0.24323529005 0.27483919263
          0.25997468829 0.250579983 0.23582476377 0.21630825102 0.28417164087 0.22076228261
          0.19679144025 0.18769396842 0.27489736676 0.23743075132 0.25952151418 0.26678040624
          0.23301157355 0.21382369101 0.2594678998 0.29058530927 0.27595886588 0.26666861773
          0.25219753385 0.2329840064 0.2997815907 0.23735208809 0.21379120648 0.20484513044
          0.29065141082 0.25039377809 0.27223354578 0.27937012911 0.24608464539 0.22714655101
          0.27222773433 0.30295839906 0.28850677609 0.27934533358 0.26503017545 0.24607233703
          0.31203174591 0.25038322806 0.22713324428 0.21829554439 0.302978158 0.25954040885
          0.28110104799 0.28812205791 0.25529181957 0.23660244048 0.28112494946 0.3114914
          0.29718956351 0.28816074133 0.27400657535 0.25528720021 0.3204292655 0.25952669978
          0.23655566573 0.22785003483 0.31144869328 0.26456689835 0.28581419587 0.29274067283
          0.26033505797 0.2419128567 0.28582379222 0.31585541368 0.30170175433 0.29279103875
          0.27880057693 0.26030036807 0.32466834784 0.264467448 0.24177241325 0.23321647942
          0.31577301025 0.2656404376 0.28661799431 0.29345944524 0.26144051552 0.24325050414
          0.28662398458 0.31633788347 0.30230796337 0.2935321629 0.27967593074 0.26138278842
          0.32500517368 0.26549327374 0.24305032194 0.23462106287 0.31618741155 0.26300561428
          0.28376400471 0.29051411152 0.25884139538 0.24084822834 0.28380426764 0.3132416904
          0.29932117462 0.29066330194 0.27690923214 0.25879243016 0.321785748 0.26287919283
          0.24062559009 0.2322845906 0.31302949786 0.25676339865 0.27735584974 0.28408807516
          0.25260868669 0.23474349082 0.27740237117 0.30661448836 0.29279720783 0.28423288465
          0.27054822445 0.25256088376 0.31508395076 0.25665071607 0.2345366776 0.22623631358
          0.30640485883 0.24758645892 0.26797285676 0.2746450603 0.24345165491 0.22574301064
          0.26800066233 0.29691201448 0.28322660923 0.2747759521 0.26121193171 0.24339547753
          0.30526819825 0.24746692181 0.22554974258 0.21731513739 0.2967017889 0.23615591228
          0.25633463264 0.26295989752 0.23205521703 0.21451316774 0.25638082623 0.28499379754
          0.27144446969 0.26310139894 0.24964375794 0.23201152682 0.29326990247 0.23607727885
          0.21435013413 0.20616236329 0.2847956717 0.22271481156 0.24285015464 0.24946989119
          0.21862216294 0.2011077702 0.24287803471 0.27140018344 0.25790560246 0.24957643449
          0.23616582155 0.21859237552 0.27967962623 0.22265785933 0.20098540187 0.19280642271
          0.27125430107 0.20765180886 0.22775474191 0.23438832164 0.20356625319 0.18606472015
          0.22779849172 0.25622528791 0.24278223515 0.23448067904 0.22109647095 0.20355838537
          0.26448640227 0.2076407522 0.18600340188 0.1777971983 0.2561263442 0.19129405916
          0.21140052378 0.21806670725 0.18717908859 0.16966682673 0.21141119301 0.23982219398
          0.2264008522 0.21810309589 0.20470972359 0.18716810644 0.24810831249 0.19126947224
          0.16961590946 0.16139228642 0.23978057504 0.174181059 0.19427281618 0.20096617937
          0.17005030811 0.1525157243 0.19428673387 0.22268423438 0.20927371085 0.20099236071
          0.18758131564 0.17004431784 0.23095934093 0.17416988313 0.15249758959 0.14423103631
          0.22265528142 0.15680260956 0.17690779269 0.18360172212 0.15266512334 0.13512319326
          0.17692285776 0.20530298352 0.19189821184 0.18362039328 0.170215711 0.1526748389
          0.2135784626 0.15681689978 0.13513359427 0.12685324252 0.20528902113 0.075172051787
          0.10417363793 0.10884765536 0.075275950134 0.050985906273 0.11162742227 0.14810276031
          0.12658891082 0.12392044067 0.09951607883 0.079871080816 0.1536346674 0.090201750398
          0.060106351972 0.045225568116 0.13867941499 0.10071862489 0.13824942708 0.11399205029
          0.087711207569 0.068011790514 0.079611480236 0.048386372626 0.079387448728 0.10357034951
          0.11147693545 0.077612265944 0.10232968628 0.11035721004 0.074300296605 0.072542183101
          0.053251929581 0.051061160862 0.10372174531 0.1386718899 0.12194811553 0.10249918699
          0.13790290058 0.12098611146 0.11196219921 0.11089494079 0.095526456833 0.094156689942
          0.074083186686 0.072413079441 0.14845657349 0.14785046875 0.078817859292 0.077369280159
          0.052396841347 0.050519112498 0.042837738991 0.040615931153 0.1379108727 0.1371769011
          0.073606237769 0.09866143018 0.10684913397 0.068462640047 0.046674501151 0.098792269826
          0.13456128538 0.11752998084 0.10725085437 0.090363413095 0.068359270692 0.14473327994
          0.073407925665 0.046246059239 0.036152321845 0.1340355128 0.067411504686 0.092825897038
          0.10115054995 0.062260773033 0.040154501796 0.092935316265 0.12901996076 0.11188974977
          0.1014406532 0.084427118301 0.062217172235 0.13939961791 0.067363463342 0.03995500505
          0.029637919739 0.12867701054 0.059063006192 0.084824278951 0.093269445002 0.053908497095
          0.031504835933 0.084884420037 0.12122613937 0.10404840112 0.093413315713 0.076319076121
          0.053925972432 0.1318282187 0.059133145958 0.03151473403 0.02099403739 0.12110994011
          0.048322122544 0.074356272817 0.082912102342 0.043170746416 0.020528893918 0.074375443161
          0.11086671799 0.093697734177 0.082910701632 0.065778300166 0.043248474598 0.12165465206
          0.04853598401 0.02077387087 0.01006073039 0.11097566038 0.03491319716 0.06118709594
          0.069836631417 0.029768776149 0.0069199241698 0.061164349318 0.097806043923 0.08061927557
          0.069694250822 0.052527640015 0.029897538945 0.10875239968 0.035241052508 0.0073655378073
          -0.0035042769741 0.098113745451 0.018817113712 0.045297924429 0.05404792726 0.013651275076
          -0.0093960287049 0.045264672488 0.082076184452 0.064851514995 0.053829606622 0.036580890417
          0.013814207166 0.093155130744 0.019232038409 -0.0088159656152 -0.019826695323 0.082517370582
          0.0001366406068 0.026907639578 0.035792931914 -0.0051105464809 -0.02842583321 0.026834240183
          0.063994988799 0.046646647155 0.035479165614 0.018078571185 -0.0049198670313 0.075254097581
          0.00056348851649 -0.027773061767 -0.038937374949 0.064560592175 -0.020716089755 0.0064406115562
          0.015471995808 -0.026031212881 -0.049685958773 0.0063601145521 0.044005282223 0.026441434398
          0.015103827231 -0.002518448513 -0.025834469125 0.055447012186 -0.020259510726 -0.048981498927
          -0.060324069113 0.044649302959 -0.043458782136 -0.0159740448 -0.0068151736632 -0.048857804388
          -0.07280061394 -0.016114434227 0.021980209276 0.0042369700968 -0.007281831 -0.025074467063
          -0.048673789948 0.033576451242 -0.043056745082 -0.072094336152 -0.08358066529 0.022682225332
          -0.068078294396 -0.04036713019 -0.031140785664 -0.073521591723 -0.097651652992 -0.040493153036
          -0.0020775604062 -0.019973544404 -0.03158774972 -0.049534313381 -0.073334738612 0.009617366828
          -0.067660652101 -0.096954658628 -0.10852278769 -0.0013815077255 -0.094918787479 -0.06708830595
          -0.057825233787 -0.1003799215 -0.12461922318 -0.067167080939 -0.028547521681 -0.046565610915
          -0.058207128197 -0.076270163059 -0.10018510371 -0.016822252423 -0.094487048686 -0.1239445284
          -0.13554812968 -0.027917556465 -0.12399560958 -0.096109770238 -0.086859054863 -0.12948705256
          -0.15376342833 -0.096194840968 -0.057377882302 -0.075515329838 -0.087183661759 -0.1053262502
          -0.12934143841 -0.045667748898 -0.12366760522 -0.15321905911 -0.16479717195 -0.056860461831
          -0.15552531183 -0.12757323682 -0.11831566691 -0.16105942428 -0.18537420034 -0.12763640285
          -0.088612638414 -0.10688794404 -0.11856953055 -0.13681769371 -0.16094309092 -0.076917223632
          -0.15527117252 -0.18496266007 -0.19651211798 -0.088219329715 -0.18964400887 -0.16151916981
          -0.15221436322 -0.1952624917 -0.21973660588 -0.16156840324 -0.12215384841 -0.14065390825
          -0.15237832069 -0.17084227502 -0.19519329071 -0.11042805016 -0.18949712813 -0.2194827646
          -0.23105242848 -0.12189525366 -0.22657319903 -0.19824321568 -0.18885135651 -0.23229454458
          -0.25696703792 -0.19826970994 -0.15842814744 -0.17717148364 -0.18893924356 -0.20764130354
          -0.23225404322 -0.14666329324 -0.22649915516 -0.25683614612 -0.26848372817 -0.15829008818
          -0.26539641619 -0.23699992895 -0.22755841911 -0.27120485902 -0.29596248269 -0.23702830076
          -0.19698920846 -0.2158600539 -0.22762253881 -0.24645733833 -0.2711994946 -0.18524746597
          -0.26540282369 -0.29592549801 -0.30760133266 -0.19693294168 -0.30513381958 -0.276776582
          -0.26732331514 -0.31095585227 -0.33570450544 -0.27677825093 -0.23674066365 -0.25564277172
          -0.26734369993 -0.28622701764 -0.31096568704 -0.22503979504 -0.30512925982 -0.33569157124
          -0.34736964107 -0.2367323339 -0.34501710534 -0.31669712067 -0.30725836754 -0.35086107254
          -0.37557309866 -0.31671699882 -0.27669480443 -0.29558768868 -0.30726569891 -0.32615035772
          -0.35087734461 -0.26502975821 -0.34505945444 -0.37560337782 -0.38724502921 -0.27670124173
          0.075184196234 0.10052095354 0.10817991197 0.071090660989 0.049307260662 0.10210224986
          0.13740883768 0.1197181195 0.11109803617 0.093069650233 0.071939952672 0.14646878839
          0.07779609412 0.050612483174 0.039912682027 0.13520355523 0.099412254989 0.13639709353
          0.11094071716 0.087583690882 0.067227438092 0.076714366674 0.04669585824 0.088062390685
          0.094822272658 0.087773829699 0.069745965302 0.072794482112 0.070296041667 0.059083398432
          0.047856234014 0.045397825539 0.030208937824 0.030412528664 0.023494232446 0.048352975398
          0.061056982726 0.066039778292 0.061042983085 0.047829348594 0.049784708768 0.047952581197
          0.039561454207 0.031295500696 0.029318435118 0.017923312262 0.018164522946 0.012980009429
          0.031545620412 0.037701740861 0.041182070971 0.03772328794 0.028565393761 0.029861820862
          0.028695646673 0.022733679041 0.017026780173 0.015569930896 0.0075690126978 0.0078462287784
          0.0041333343834 0.017310636118 0.019599210471 0.021781291813 0.019636046141 0.013940185308
          0.014677278697 0.014057686552 0.010186853819 0.006627428811 0.0056734681129 0.00058377761161
          0.00088559504366 -0.0015275927726 0.0069229253568 0.0070647769608 0.0080821737647 0.0071472907439
          0.0045779081993 0.0047324616462 0.004678374622 0.0025729204062 0.00098463648465 0.00039981724694
          -0.0021256690379 -0.0017374281306 -0.0030520115979 0.0013414159184 -8.5532893702e-13 -1.4853136082e-11
          1.3441465822e-11 2.0637566092e-13 -1.0602359919e-12 -2.0527034391e-13 -6.5855517383e-14 -7.480589092e-14
          1.4055156507e-15 0 0 0 -8.8270997499e-15
        </DataArray>
        <DataArray type="Float32" Name="uy" format="ascii" RangeMin="-1.2380992174" RangeMax="0.68087226152">
          0.0052705686539 0.001162113389 -0.0012633270817 -0.037553545088 -0.081366181374 -0.080101542175
          -0.080984294415 0.0054943198338 0.0033645131625 -0.010948268697 -0.037282057106 -0.081866770983
          -0.081215299666 -0.065050974488 0.0028291468043 -0.011344237253 -0.08212993294 -0.065544344485
          -0.0048484029248 -0.039115384221 -0.078635618091 -0.0045860065147 -0.078828558326 -0.07851934433
          -0.039595037699 -0.0046514491551 -0.037144601345 -0.33609634638 -0.31141555309 -0.3360748589
          -0.29938966036 -0.27447083592 -0.2993144989 -0.30203846097 -0.26501005888 -0.31740638614
          -0.28056025505 -0.26194211841 -0.25615540147 -0.28673607111 -0.22427016497 -0.21851664782
          -0.24949453771 -0.23711454868 -0.199030146 -0.28671485186 -0.24945479631 -0.27147394419
          -0.23396290839 -0.2868488431 -0.24964784086 -0.23717661202 -0.19904306531 -0.25627204776
          -0.21855613589 -0.28695476055 -0.24974898994 -0.31733036041 -0.28043234348 -0.37634280324
          -0.35214921832 -0.37634968758 -0.34294041991 -0.3579441309 -0.30364239216 -0.29789683223
          -0.32791799307 -0.27930390835 -0.32793340087 -0.31299132109 -0.32796999812 -0.27940043807
          -0.29809328914 -0.32810494304 -0.35792034864 -0.41874831915 -0.39497864246 -0.41880175471
          -0.38589131832 -0.40059861541 -0.34730085731 -0.34160923958 -0.37114563584 -0.32340893149
          -0.37115168571 -0.35648095608 -0.37116032839 -0.32352015376 -0.34184527397 -0.37126639485
          -0.40064749122 -0.46230298281 -0.43897217512 -0.46237930655 -0.43003985286 -0.44445726275
          -0.39217168093 -0.38654488325 -0.41555443406 -0.36872196198 -0.41558757424 -0.40118041635
          -0.41554272175 -0.368858248 -0.38681730628 -0.41566377878 -0.4445336163 -0.50611817837
          -0.48325163126 -0.50622707605 -0.47447541356 -0.48857775331 -0.43734413385 -0.4317830801
          -0.46027135849 -0.41433280706 -0.46030789614 -0.44618597627 -0.4602368772 -0.41451627016
          -0.43211477995 -0.46036088467 -0.48871698976 -0.54988992214 -0.52741014957 -0.55003476143
          -0.5187394619 -0.53259575367 -0.48222190142 -0.47674062848 -0.50479352474 -0.45958089828
          -0.50481969118 -0.49092164636 -0.5047763586 -0.45978119969 -0.47708436847 -0.50483620167
          -0.53281718493 -0.59340780973 -0.5712300539 -0.59358072281 -0.5626707077 -0.57633721828
          -0.52662169933 -0.5212213397 -0.54892420769 -0.50426697731 -0.54893130064 -0.53521341085
          -0.54890739918 -0.50446391106 -0.52155965567 -0.54895943403 -0.57660388947 -0.6368072629
          -0.61492586136 -0.63699543476 -0.60646891594 -0.61997443438 -0.5708604455 -0.56554156542
          -0.59289115667 -0.54877132177 -0.5929017663 -0.57935726643 -0.59289622307 -0.54897332191
          -0.56587934494 -0.59295231104 -0.62024462223 -0.6808180213 -0.65920239687 -0.68100142479
          -0.65087103844 -0.66422086954 -0.61565935612 -0.61041867733 -0.63744771481 -0.59380942583
          -0.63744699955 -0.62406378984 -0.63748824596 -0.59400999546 -0.61076426506 -0.63753914833
          -0.66449660063 -0.72615206242 -0.70480912924 -0.72632211447 -0.69657665491 -0.70979136229
          -0.66177356243 -0.65663063526 -0.68332755566 -0.64017009735 -0.68331366777 -0.6700912118
          -0.68340426683 -0.64037168026 -0.65696310997 -0.68345069885 -0.71004545689 -0.77390652895
          -0.7527756691 -0.77406483889 -0.74463438988 -0.75773364305 -0.71016710997 -0.70508658886
          -0.73151707649 -0.68875336647 -0.73150056601 -0.71839916706 -0.73160272837 -0.68893629313
          -0.70539265871 -0.73164129257 -0.75798308849 -0.8245472312 -0.80355983973 -0.82469326258
          -0.79547375441 -0.8084859252 -0.7612849474 -0.75627273321 -0.78246623278 -0.7400687933
          -0.78244173527 -0.76944130659 -0.78256350756 -0.74021321535 -0.75652068853 -0.7825756073
          -0.80872434378 -0.87780797482 -0.85702580214 -0.87792569399 -0.84901702404 -0.86190718412
          -0.81518930197 -0.81025886536 -0.83616995811 -0.79419004917 -0.83611875772 -0.82323396206
          -0.83626317978 -0.79429465532 -0.81040519476 -0.83622354269 -0.86211192608 -0.93377041817
          -0.91316753626 -0.93387681246 -0.90523856878 -0.91800713539 -0.87171751261 -0.86683702469
          -0.89250093699 -0.85092383623 -0.89245814085 -0.87967824936 -0.89258217812 -0.85101121664
          -0.86695474386 -0.89254152775 -0.91820091009 -0.99231076241 -0.97174471617 -0.99240171909
          -0.96384346485 -0.97657185793 -0.93040984869 -0.92553144693 -0.95111864805 -0.90968179703
          -0.95108765364 -0.93834131956 -0.95118653774 -0.90976762772 -0.92564499378 -0.95116388798
          -0.97673219442 -1.052532196 -1.0319788456 -1.0525921583 -1.0240975618 -1.0368219614
          -0.99073922634 -0.98586690426 -1.0113748312 -0.97008413076 -1.0113675594 -0.99865061045
          -1.0114219189 -0.97014552355 -0.98596131802 -1.0114290714 -1.0369135141 -1.1139178276
          -1.0933417082 -1.1139661074 -1.0854585171 -1.098175168 -1.0521050692 -1.0472358465
          -1.0727398396 -1.0314666033 -1.072729826 -1.0600026846 -1.0727630854 -1.0315053463
          -1.0472995043 -1.0727548599 -1.0982589722 -1.1759318113 -1.1553313732 -1.1759506464
          -1.1474493742 -1.1601819992 -1.1140904427 -1.1092121601 -1.1347153187 -1.0934571028
          -1.1347062588 -1.1219689846 -1.1347178221 -1.0934737921 -1.1092402935 -1.1347117424
          -1.1602143049 -1.2380992174 -1.2174845934 -1.238096118 -1.2096227407 -1.2223594189
          -1.1762709618 -1.1714019775 -1.1968750954 -1.1556459665 -1.1968865395 -1.1841516495
          -1.1968817711 -1.155651927 -1.1714119911 -1.1968899965 -1.2223443985 -0.21285901964
          -0.19744217396 -0.21270318329 -0.19164147973 -0.20133811235 -0.16625791788 -0.16291765869
          -0.18203929067 -0.15055330098 -0.18194270134 -0.17229001224 -0.18228246272 -0.15039357543
          -0.1627034843 -0.18231478333 -0.20111611485 -0.076051227748 -0.075834609568 -0.073694601655
          -0.078525714576 -0.076858825982 -0.073297210038 -0.075190722942 0.20362979174 0.17895717919
          0.20378556848 0.24205200374 0.21676953137 0.24219734967 0.16943396628 0.20703849196
          0.18485483527 0.22284710407 0.12876571715 0.12310611457 0.15409831703 0.16566422582
          0.15980802476 0.19140294194 0.10349434614 0.13992701471 0.15395334363 0.19127355516
          0.13851428032 0.1755181849 0.15446351469 0.19172652066 0.10364141315 0.1400244385
          0.12331330776 0.15989218652 0.15434503555 0.19157908857 0.18520326912 0.22314716876
          0.28802219033 0.26241999865 0.28815716505 0.25257149339 0.26851183176 0.21075041592
          0.20478305221 0.23673613369 0.18479028344 0.23662577569 0.22070631385 0.23697058856
          0.18486812711 0.20487245917 0.23685415089 0.26878738403 0.3400426805 0.31410062313
          0.34018561244 0.30409950018 0.32019212842 0.26184460521 0.25572890043 0.2880589962
          0.23563601077 0.28798410296 0.27187639475 0.28820642829 0.23571613431 0.25582575798
          0.28809943795 0.32046672702 0.39541223645 0.36918219924 0.39557147026 0.35903829336
          0.37523812056 0.31641158462 0.3101644814 0.34282919765 0.29000881314 0.34279373288
          0.32649901509 0.34287744761 0.29009085894 0.31026393175 0.34274944663 0.37553212047
          0.45105069876 0.42458441854 0.45121699572 0.41433227062 0.43060439825 0.37148436904
          0.36511969566 0.39800849557 0.34495219588 0.39800602198 0.38159060478 0.39796426892
          0.34503057599 0.36519393325 0.39781978726 0.43091231585 0.50431424379 0.47764205933
          0.5044888854 0.46730521321 0.48363530636 0.42422968149 0.41776123643 0.45086359978
          0.39761090279 0.45088160038 0.4343739152 0.45073708892 0.39769402146 0.41786411405
          0.45060041547 0.48394486308 0.55289375782 0.52600699663 0.55305224657 0.51559507847
          0.53200858831 0.47226577997 0.46569702029 0.49902459979 0.44549718499 0.49907302856
          0.48245406151 0.49881401658 0.44558098912 0.46582093835 0.49871918559 0.53229176998
          0.59525334835 0.56804573536 0.59538722038 0.55752277374 0.57411438227 0.51371508837
          0.50704073906 0.54072737694 0.48668283224 0.54081875086 0.5240149498 0.54047238827
          0.48675993085 0.50717514753 0.54041618109 0.57433795929 0.62986087799 0.60224872828
          0.62998491526 0.59159225225 0.60840833187 0.54717594385 0.54038846493 0.57453793287
          0.51979064941 0.57464498281 0.55762588978 0.57423406839 0.51987618208 0.54054105282
          0.57423394918 0.60858678818 0.65585178137 0.62788778543 0.65597087145 0.61707735062
          0.63410484791 0.57215201855 0.56528609991 0.59984439611 0.5444509387 0.59994256496
          0.58269822598 0.59954607487 0.5445305109 0.56541615725 0.59949058294 0.63430887461
          0.6727887392 0.64460134506 0.67290997505 0.63372302055 0.65088748932 0.58841556311
          0.58148056269 0.61633223295 0.56048065424 0.61643749475 0.5990678072 0.61602032185
          0.56057566404 0.58166795969 0.61602705717 0.65107309818 0.68075799942 0.65243571997
          0.68087226152 0.64151877165 0.65877968073 0.59595024586 0.58899194002 0.62401938438
          0.56785076857 0.62413090467 0.60667955875 0.62373286486 0.56795793772 0.58919429779
          0.62376761436 0.65895789862 0.68047714233 0.65210467577 0.68061357737 0.64114570618
          0.65848892927 0.5954195857 0.58847862482 0.62362539768 0.56719863415 0.62370693684
          0.60619813204 0.62339013815 0.56730937958 0.58867514133 0.62338864803 0.65869814157
          0.67351293564 0.6450574398 0.67365443707 0.63408774137 0.65152078867 0.58816063404
          0.58122754097 0.61650145054 0.55979192257 0.61656141281 0.5990074873 0.61632549763
          0.5599206686 0.58145087957 0.61634367704 0.65172898769 0.66206157207 0.63339847326
          0.66219574213 0.62235826254 0.63995271921 0.57601046562 0.56906664371 0.60463368893
          0.54735541344 0.60467892885 0.58696991205 0.6045203805 0.54748374224 0.56928944588
          0.60452306271 0.64017188549 0.64753520489 0.6185991168 0.6476367116 0.60747748613
          0.62529724836 0.56063193083 0.55367803574 0.58958238363 0.53166437149 0.58960205317
          0.57171088457 0.58952283859 0.53175234795 0.55384629965 0.5895203352 0.62546122074
          0.63108944893 0.60201382637 0.63113963604 0.59086996317 0.60881537199 0.54380625486
          0.53689360619 0.57290059328 0.51470482349 0.57290446758 0.5549274683 0.5728828907
          0.51475799084 0.53696900606 0.57286071777 0.60889738798 0.6138240099 0.58474397659
          0.61383295059 0.57362163067 0.59158349037 0.52655631304 0.5196723938 0.55564492941
          0.49745997787 0.55564850569 0.53767222166 0.55564689636 0.49748021364 0.51969981194
          0.55563914776 0.59161567688 0.5963562727 0.56732922792 0.59636640549 0.55622524023
          0.57416236401 0.50923842192 0.50238198042 0.53829067945 0.48016649485 0.5382797122
          0.52032572031 0.53829628229 0.48016771674 0.50236862898 0.5382643342 0.57417947054
          0.12277788669 0.10737309605 0.12307073921 0.10126591474 0.11096532643 0.07478595525
          0.071194954216 0.091432183981 0.058137141168 0.091268904507 0.081303209066 0.091834671795
          0.058405261487 0.071605436504 0.091772191226 0.11152630299 -0.010754604824 -0.012259894051
          -0.016580268741 -0.0049030883238 -0.0083753317595 -0.016177967191 -0.011570328847 -0.048447456211
          -0.027326155454 -0.0062344269827 0.0067180050537 -0.027369625866 -0.061451319605 -0.027389606461
          0.0066532031633 -0.027421467006 -0.0064327022992 -0.048510603607 -0.027502570301 -0.061472535133
          -0.033167105168 -0.017657304183 -0.0021534513216 0.0075487592258 -0.017680352554 -0.04287314415
          -0.017707237974 0.007579036057 -0.017768608406 -0.0021618625615 -0.033506631851 -0.017879754305
          -0.043034199625 -0.020518604666 -0.0097870286554 0.00098918844014 0.0078301206231 -0.0097597688437
          -0.027278257534 -0.0097790304571 0.0079381475225 -0.0098323477432 0.0011085373117 -0.020965445787
          -0.0099808601663 -0.027507489547 -0.010946720839 -0.0042813024484 0.0024369980674 0.0067871608771
          -0.0042518200353 -0.015214772895 -0.0042805285193 0.0069199008867 -0.0043382593431 0.0025856832508
          -0.011435761116 -0.0044837091118 -0.015470166691 -0.0041226944886 -0.0011150015052 0.0019499778282
          0.0041359448805 -0.0010895028245 -0.0061962576583 -0.0011328313267 0.0043186056428 -0.0012111271499
          0.0021752575412 -0.0048322458751 -0.0014102783753 -0.0065703536384 -1.3761135243e-12 1.1007672638e-12
          -9.3246901018e-15 -4.6454685801e-13 3.3839294214e-13 9.418751586e-13 -5.7093117397e-14 1.8722231813e-15
          1.2892743547e-14 0 0 0 5.4680038268e-15
        </DataArray>
        <DataArray type="Float32" Name="uz" format="ascii" RangeMin="-0.075663596392" RangeMax="0.038354128599">
          0.0027421191335 0.0030274419114 0.0019149238942 -0.0053990460001 -0.013118595816 -0.013257901184
          -0.010021984577 0.0043796915561 0.0039472412318 0.0033017839305 -0.0024758039508 -0.0052496949211
          -0.010071310215 -0.005098700989 0.0019566677511 -0.0016720320564 -0.017014401034 -0.012330397964
          0.0021482016891 -0.00021297657804 -0.006488523446 0.0028241202235 -0.0030105961487 -0.016526436433
          -0.0076379156671 0.001135956496 -0.0039450409822 -0.0585106574 -0.041847642511 -0.044876042753
          -0.057432565838 -0.041849866509 -0.045355848968 -0.051686447114 -0.050272699445 -0.064625956118
          -0.062189240009 -0.028978096321 -0.01298903022 -0.027806140482 -0.029076153412 -0.014968058094
          -0.028728738427 -0.019090548158 -0.019732628018 -0.038813393563 -0.038430545479 -0.043737523258
          -0.04225859791 -0.016736229882 -0.019042374566 -0.03274770081 -0.031514581293 -0.048702672124
          -0.046025022864 -0.060859587044 -0.057809848338 -0.028926899657 -0.030661109835 -0.058975107968
          -0.041734781116 -0.044308364391 -0.0525980331 -0.066065736115 -0.029286326841 -0.012276101857
          -0.027319258079 -0.019371302798 -0.039168536663 -0.044897578657 -0.015427909791 -0.034033693373
          -0.050660785288 -0.062886767089 -0.027675740421 -0.058886963874 -0.041576951742 -0.043646957725
          -0.053103514016 -0.066727623343 -0.029825642705 -0.012309567071 -0.027201149613 -0.020115334541
          -0.039513856173 -0.045831028372 -0.014864481986 -0.035333327949 -0.052162513137 -0.064148813486
          -0.026830010116 -0.058397106826 -0.041361365467 -0.04289990291 -0.053305868059 -0.066813960671
          -0.030560005456 -0.012867920101 -0.027317531407 -0.021251499653 -0.039834760129 -0.046622790396
          -0.014775921591 -0.036741886288 -0.053417544812 -0.064903900027 -0.026239221916 -0.057440657169
          -0.041039668024 -0.041936155409 -0.053251087666 -0.066355153918 -0.031536251307 -0.01399062667
          -0.027633778751 -0.022889882326 -0.040168326348 -0.047368876636 -0.015083748847 -0.038386609405
          -0.054573129863 -0.065261624753 -0.025755297393 -0.055949129164 -0.040498580784 -0.040563438088
          -0.052946008742 -0.065437965095 -0.032698985189 -0.01545549091 -0.027993099764 -0.024930357933
          -0.040458183736 -0.048125721514 -0.015519958921 -0.040335830301 -0.055784270167 -0.065376892686
          -0.025116508827 -0.054114632308 -0.039717044681 -0.038802474737 -0.052466213703 -0.064285852015
          -0.033892799169 -0.016977438703 -0.028236024082 -0.027138985693 -0.040638945997 -0.04886456579
          -0.015855008736 -0.042452003807 -0.057067878544 -0.065413251519 -0.024189928547 -0.05210987851
          -0.038718484342 -0.036723796278 -0.051939047873 -0.063142001629 -0.035024411976 -0.018292296678
          -0.02825573273 -0.029340954497 -0.040717016906 -0.049651630223 -0.01581453532 -0.044722672552
          -0.058574642986 -0.065613403916 -0.022850541398 -0.050195783377 -0.037640545517 -0.034480646253
          -0.05157795921 -0.062318604439 -0.03610561043 -0.019288247451 -0.028078785166 -0.031433653086
          -0.040806807578 -0.050625883043 -0.01537301112 -0.047151990235 -0.060439284891 -0.066240601242
          -0.021175056696 -0.048601433635 -0.036579757929 -0.032239861786 -0.051498357207 -0.062037546188
          -0.037080831826 -0.019816000015 -0.027681721374 -0.033248871565 -0.040932707489 -0.051811002195
          -0.014462148771 -0.049611397088 -0.062668032944 -0.067422814667 -0.019203120843 -0.04718413204
          -0.035471841693 -0.029937656596 -0.051541730762 -0.062053080648 -0.037910759449 -0.019934749231