<VTKFile type="UnstructuredGrid" version="1.0" byte_order="LittleEndian" header_type="UInt64">
  <UnstructuredGrid>
    <Piece NumberOfPoints="791" NumberOfCells="973">
      <PointData>
        <DataArray type="Float32" Name="ux" format="ascii" RangeMin="-1.0302503109" RangeMax="1.6979699135">
          -0.44646972418 -0.42342951894 -0.4134760201 -0.45325538516 -0.45569047332 -0.41628792882
          -0.43699404597 -0.4450096488 -0.43030443788 -0.44584706426 -0.45286694169 -0.463396281
          -0.45908239484 -0.45509728789 -0.43031072617 -0.44487848878 -0.42829734087 -0.4453945756
          -0.40015596151 -0.44954222441 -0.41513314843 -0.40024545789 -0.42834442854 -0.3834451735
          -0.43499872088 -0.39808246493 -0.45376750827 0.3808375001 0.32580375671 0.3078110218
          0.044507309794 -0.0062107285485 -0.020857598633 0.39198350906 0.051783598959 0.43966826797
          0.094480529428 0.32355886698 0.24675288796 0.28486552835 -0.0079805422574 -0.073414027691
          -0.042690828443 0.30288004875 -0.023236569017 0.34358966351 0.0090338429436 0.39054021239
          0.049372661859 0.2263161689 -0.094300441444 0.37664869428 0.038975983858 0.43684795499
          0.08976764977 0.46079096198 0.11152391881 0.24954231083 -0.074633777142 0.67119038105
          0.61918288469 0.59867858887 0.68725061417 0.73542153835 0.6184412837 0.53809374571
          0.57840526104 0.59616518021 0.63833999634 0.68843650818 0.51983582973 0.67422318459
          0.73946994543 0.76362365484 0.54205650091 0.86430722475 0.81814348698 0.79742389917
          0.88167637587 0.92643386126 0.81644558907 0.74078798294 0.77999907732 0.79309117794
          0.83629673719 0.88440871239 0.72569686174 0.86953252554 0.93472725153 0.95661205053
          0.74775564671 0.92238944769 0.88495469093 0.8660210371 0.94100373983 0.97839176655
          0.88700085878 0.82172578573 0.85467237234 0.86727505922 0.90302842855 0.9445207715
          0.80923384428 0.93249154091 0.98895066977 1.0061454773 0.82598680258 0.82209223509
          0.79655569792 0.78203475475 0.83756446838 0.86446541548 0.79956817627 0.75251030922
          0.77627813816 0.78413939476 0.81023806334 0.84141021967 0.74440151453 0.83177822828
          0.87346524 0.88613045216 0.75595736504 0.59840399027 0.58036029339 0.57019031048
          0.60853731632 0.62797605991 0.58028846979 0.54792273045 0.56472283602 0.56981146336
          0.5887568593 0.61002480984 0.54142779112 0.6028752327 0.6328342557 0.64267545938
          0.54943758249 0.28938272595 0.27223712206 0.26515763998 0.29424282908 0.30942153931
          0.27169111371 0.24867041409 0.25969538093 0.26557970047 0.27866560221 0.29431286454
          0.24267977476 0.28936067224 0.31025397778 0.31754055619 0.24779592454 -0.072035580873
          -0.072833709419 -0.072932906449 -0.073369391263 -0.073200151324 -0.072818234563 -0.070551887155
          -0.072989910841 -0.070160910487 -0.072681620717 -0.074018150568 -0.073415465653 -0.072951637208
          -0.074690520763 -0.075087085366 -0.074896998703 -0.4108261466 -0.39397999644 -0.3886346221
          -0.41665300727 -0.43207907677 -0.3901297152 -0.36250829697 -0.37972384691 -0.3798212111
          -0.39878511429 -0.41648754478 -0.36188903451 -0.40880325437 -0.43461939692 -0.44316351414
          -0.37180161476 -0.67031568289 -0.64665526152 -0.63913780451 -0.67684793472 -0.69981050491
          -0.64289957285 -0.60507559776 -0.62736725807 -0.62974905968 -0.65497040749 -0.67737221718
          -0.60200387239 -0.66726732254 -0.70072090626 -0.71310091019 -0.61561381817 -0.86351853609
          -0.83060097694 -0.82006490231 -0.87233823538 -0.90373253822 -0.82569694519 -0.77506780624
          -0.80416476727 -0.8087335825 -0.84119194746 -0.8724424243 -0.76990163326 -0.85965377092
          -0.90612393618 -0.9219545126 -0.78647148609 -0.96378177404 -0.9309078455 -0.91844755411
          -0.97594493628 -1.008330822 -0.92675799131 -0.86963713169 -0.90294343233 -0.90675896406
          -0.94272941351 -0.97673660517 -0.86356031895 -0.96310430765 -1.0131042004 -1.0302503109
          -0.88267314434 -0.9349091053 -0.90085422993 -0.88673883677 -0.94785171747 -0.98198640347
          -0.89839029312 -0.8428363204 -0.87324798107 -0.87960898876 -0.91373771429 -0.94816833735
          -0.83515202999 -0.9340942502 -0.98444277048 -1.0039117336 -0.85165029764 -0.77886706591
          -0.7412405014 -0.72625809908 -0.79071873426 -0.82707923651 -0.73859453201 -0.68293827772
          -0.71300655603 -0.71978235245 -0.75484740734 -0.78944420815 -0.67277699709 -0.77426719666
          -0.82522928715 -0.84596669674 -0.68799906969 -0.49269858003 -0.45124262571 -0.43402147293
          -0.5041950345 -0.54354149103 -0.44912993908 -0.39122119546 -0.42060399055 -0.43086695671
          -0.46616959572 -0.50193268061 -0.37720558047 -0.48644059896 -0.53768372536 -0.56163483858
          -0.39179468155 -0.092422172427 -0.047473236918 -0.029386514798 -0.10480797291 -0.1464548409
          -0.047527868301 0.015169098973 -0.01501891762 -0.028991259634 -0.063540518284 -0.1028906405
          0.032455310225 -0.087499797344 -0.14134649932 -0.16462227702 0.017322599888 0.3999375999
          0.45218226314 0.47191756964 0.38720744848 0.34033122659 0.45181295276 0.52430438995
          0.49065133929 0.47049769759 0.4336925745 0.38880476356 0.54613214731 0.40177705884
          0.34378385544 0.31887057424 0.52686977386 0.95539975166 1.014821887 1.035086751
          0.94355911016 0.89181113243 1.0161563158 1.0993876457 1.0591144562 1.0375790596
          0.99556726217 0.94424808025 1.122699976 0.95786046982 0.89316940308 0.86744958162
          1.0981785059 1.5281600952 1.5886615515 1.6095514297 1.5152933598 1.4631994963
          1.5870916843 1.6734721661 1.6332544088 1.6077241898 1.5679636002 1.5143141747
          1.6979699135 1.5263792276 1.4626276493 1.4378666878 1.6737847328 -0.3684951663
          -0.35657760501 -0.41363063455 -0.30024492741 -0.30040600896 -0.2704539597 -0.30580919981
          -0.33824449778 -0.23581160605 -0.30247664452 -0.2484177351 -0.37413910031 -0.19360052049
          -0.19342455268 -0.23492920399 -0.41446071863 -0.37053105235 -0.37861186266 -0.33409163356
          -0.40349262953 -0.37189307809 -0.318451792 -0.33808511496 -0.28066474199 -0.26607078314
          -0.26214048266 -0.22836706042 -0.20465156436 -0.19992129505 -0.28239560127 -0.22903047502
          -0.29379299283 -0.24938629568 -0.26447787881 -0.24519261718 -0.25561493635 -0.20041464269
          -0.16918218136 -0.18601791561 -0.25890815258 -0.1917475909 -0.27017349005 -0.20998324454
          -0.28127163649 -0.22676345706 -0.24079982936 -0.16247034073 -0.2769844532 -0.22005432844
          -0.29150632024 -0.24341259897 -0.29778528214 -0.25473833084 -0.24679224193 -0.17453728616
          -0.17717376351 -0.14899194241 -0.14150865376 -0.18038491905 -0.20512019098 -0.14697937667
          -0.10958560556 -0.12860809267 -0.13677729666 -0.15659420192 -0.17890107632 -0.099319115281
          -0.17182721198 -0.20099313557 -0.21378900111 -0.11213292927 -0.119216308 -0.094705827534
          -0.089080065489 -0.12176417559 -0.14277903736 -0.092222943902 -0.059868212789 -0.076388508081
          -0.083195321262 -0.10115776956 -0.12048574537 -0.052971143275 -0.11435135454 -0.1396881938
          -0.14973551035 -0.063531823456 -0.071193233132 -0.053903572261 -0.05035302788 -0.071502909064
          -0.085529580712 -0.051057320088 -0.026949593797 -0.040203712881 -0.045653738081 -0.057519163936
          -0.070612296462 -0.021294023842 -0.06691339612 -0.083322577178 -0.09082069248 -0.031082587317
          -0.062270916998 -0.044444967061 -0.041473090649 -0.063552729785 -0.078661642969 -0.042786344886
          -0.018064633012 -0.031014811248 -0.037271197885 -0.049030322582 -0.062653914094 -0.011548274197
          -0.059670798481 -0.077544279397 -0.085316963494 -0.02075888589 -0.091709397733 -0.0707000494
          -0.063886798918 -0.095360092819 -0.11501292884 -0.069676294923 -0.042455539107 -0.055831663311
          -0.062220681459 -0.077104724944 -0.093935362995 -0.035057939589 -0.087005130947 -0.10987199843
          -0.12096568942 -0.042942754924 -0.08851416409 -0.074124105275 -0.069594033062 -0.090518705547
          -0.10340212286 -0.072870008647 -0.057479482144 -0.065530456603 -0.067036412656 -0.07804454118
          -0.087953731418 -0.053781289607 -0.081679441035 -0.096895568073 -0.10628662258 -0.057000823319
          -0.031484607607 -0.023113723844 -0.021210111678 -0.030725253746 -0.038659300655 -0.020043237135
          -0.012324286625 -0.016732852906 -0.016763342544 -0.023289941251 -0.028302270919 -0.0098500819877
          -0.02403159067 -0.033091079444 -0.038589026779 -0.012857512571 0.028221540153 0.024759523571
          0.021793389693 0.031005719677 0.035053756088 0.026891009882 0.021583905444 0.023275414482
          0.024983946234 0.026905385777 0.031131897122 0.020230256021 0.02955051139 0.034717965871
          0.037920940667 0.019477931783 0.051757447422 0.03485127911 0.028673134744 0.055781111121
          0.070476077497 0.035853616893 0.011314153671 0.023464407772 0.029889890924 0.041867285967
          0.055700995028 0.0038328864612 0.050882276148 0.068607911468 0.077931731939 0.010430990718
          0.037999324501 0.019177161157 0.012293528765 0.042075432837 0.059032514691 0.021096484736
          -0.0043764291331 0.0066983704455 0.015059594996 0.025841770694 0.042494989932 -0.012816736475
          0.03970426321 0.059226930141 0.06786338985 -0.0060585504398 0.020401747897 0.0079904505983
          0.0039522508159 0.022222248837 0.033622276038 0.0092308558524 -0.0050266636536 0.0002836100175
          0.0060552484356 0.011520252563 0.02157414332 -0.011725331657 0.019112659618 0.03110104613
          0.037115495652 -0.0088544925675 0.0071786134504 0.0051926220767 0.0041275960393 0.0064507601783
          0.0084208650514 0.0062531530857 0.0062184776179 0.0046642688103 0.0067794891074 0.0050957691856
          0.0058867591433 0.0031872077379 0.0046098548919 0.0044597010128 0.0072584068403 0.0016477953177
          -0.0090772127733 0.0012186130043 0.00298674847 -0.012197914533 -0.019558610395 0.0026982973795
          0.021678162739 0.010531007312 0.0079762116075 -0.0023731964175 -0.012808075175 0.023110372946
          -0.010910441168 -0.024451477453 -0.026236854494 0.015535392798 -0.020728807896 0.0027391891927
          0.0090459603816 -0.02618137747 -0.046025265008 0.0052768234164 0.040833353996 0.021731475368
          0.014351994731 -0.004210291896 -0.026143636554 0.047658827156 -0.021294450387 -0.05022617802
          -0.058511719108 0.034258682281 -0.028172880411 0.0062294490635 0.016980525106 -0.036261565983
          -0.065839700401 0.0047732163221 0.059076599777 0.032574109733 0.017006458715 -0.0063612647355
          -0.038406785578 0.072980612516 -0.032378271222 -0.07070671767 -0.083009622991 0.055786598474
          -0.049393501133 3.3820568206e-05 0.015903735533 -0.059549175203 -0.10268311203 -0.00087597884703
          0.070292510092 0.03695942834 0.01538921427 -0.01716404967 -0.060721281916 0.091279014945
          -0.051480170339 -0.10449178517 -0.12310839444 0.069806165993 -0.079146265984 -0.022528903559
          -0.0029998058453 -0.091238506138 -0.13993014395 -0.022975090891 0.060221575201 0.020771192387
          -0.0035549062304 -0.04216825217 -0.092465750873 0.083155602217 -0.08125140518 -0.14202854037
          -0.16468933225 0.059172708541 -0.10348962992 -0.042223017663 -0.022292757407 -0.11623359472
          -0.16808015108 -0.041954386979 0.044223919511 0.003509033937 -0.021865000948 -0.062609083951
          -0.11596484482 0.069021709263 -0.1029702574 -0.16819274426 -0.19328060746 0.044730082154
          -0.3657143116 -0.3529061377 -0.36723157763 -0.34847518802 -0.35552191734 -0.32843768597
          -0.32080599666 -0.33883729577 -0.31499302387 -0.34111973643 -0.3349558413 -0.33675998449
          -0.31976315379 -0.3304566741 -0.34326595068 -0.35525986552 -0.37313446403 -0.36931440234
          -0.34887543321 -0.39891466498 -0.38165873289 -0.34644979239 -0.36681640148 -0.37421861291
          -0.36867159605 -0.38061892986 -0.40969258547 -0.40410768986 -0.4008025825 -0.42933499813
          -0.44943344593 -0.45515170693 -0.48519670963 -0.48349174857 -0.49939662218 -0.44302764535
          -0.23507574201 -0.21541155875 -0.23546119034 -0.287561059 -0.27988645434 -0.28610029817
          -0.31988885999 -0.35141056776 -0.35920637846 -0.40224337578 -0.40054449439 -0.42081579566
          -0.34989082813 -0.08052123338 -0.058355052024 -0.077413409948 -0.13240143657 -0.12456119061
          -0.13457426429 -0.16546989977 -0.19938161969 -0.2050691992 -0.24972382188 -0.24793046713
          -0.26768997312 -0.19740059972 0.02964236401 0.050198834389 0.033966518939 -0.015357185155
          -0.0071899397299 -0.019579961896 -0.042283914983 -0.071879819036 -0.075191937387 -0.11192309856
          -0.11065522581 -0.1272328645 -0.071816198528 0.056346263736 0.067064829171 0.05585385114
          0.025997038931 0.033726956695 0.028489852324 0.012568236329 -0.0091117983684 -0.0093261273578
          -0.033392235637 -0.031686026603 -0.042641051114 -0.004744399339 -4.0168610625e-12 4.9962223247e-10
          2.2857460716e-11 2.9405106822e-12 -9.2470128776e-12 -1.6846355907e-11 -2.6991987204e-12 -6.3067416957e-13
          -8.0605864323e-14 0 0 0 4.8989973319e-13
        </DataArray>
        <DataArray type="Float32" Name="uy" format="ascii" RangeMin="-0.80243706703" RangeMax="0.76532673836">
          -0.13905332983 -0.14722029865 -0.14704176784 -0.13735218346 -0.13737516105 -0.13982699811
          -0.13541384041 -0.13888292015 -0.14436721802 -0.13770914078 -0.13526935875 -0.12544392049
          -0.13454046845 -0.13293269277 -0.14305727184 -0.14058990777 -0.1386860311 -0.13852699101
          -0.15100577474 -0.13925109804 -0.13718470931 -0.14803154767 -0.13314184546 -0.14115186036
          -0.14262482524 -0.14538902044 -0.13565683365 -0.11970315129 -0.17467857897 -0.11933782697
          -0.0084750233218 -0.058058805764 -0.0066838846542 -0.19609770179 -0.0773531124 -0.16307102144
          -0.04889542982 -0.28405717015 -0.2948089838 -0.22912083566 -0.15488041937 -0.16639733315
          -0.10687165707 -0.33823660016 -0.20171636343 -0.22929254174 -0.10629543662 -0.26381093264
          -0.13659401238 -0.22817902267 -0.1067212373 -0.34037342668 -0.20224517584 -0.29947903752
          -0.16725116968 -0.23156102002 -0.10952355713 -0.16210772097 -0.044471681118 -0.24581237137
          -0.30588051677 -0.24996763468 -0.32681655884 -0.28745853901 -0.42243078351 -0.43154677749
          -0.36263638735 -0.47982904315 -0.36386337876 -0.40168902278 -0.36169624329 -0.48477169871
          -0.44082522392 -0.36340644956 -0.29435560107 -0.35217526555 -0.40979602933 -0.35983562469
          -0.42626827955 -0.38770928979 -0.51838678122 -0.52594548464 -0.46320927143 -0.57313346863
          -0.46337348223 -0.49808481336 -0.46136957407 -0.57931184769 -0.53444707394 -0.45861536264
          -0.40016290545 -0.38142961264 -0.43328687549 -0.39038228989 -0.4460594058 -0.40935057402
          -0.52597379684 -0.53111666441 -0.47887888551 -0.57258367538 -0.47850948572 -0.50843334198
          -0.47590553761 -0.57811892033 -0.53949654102 -0.4716091156 -0.42583864927 -0.31500595808
          -0.35254597664 -0.32292348146 -0.36163297296 -0.33442953229 -0.41808053851 -0.42019480467
          -0.38384491205 -0.45120552182 -0.38467374444 -0.40601485968 -0.38087171316 -0.45638170838
          -0.42839065194 -0.37901568413 -0.34658646584 -0.13574725389 -0.1632733494 -0.14113110304
          -0.16929990053 -0.1499029547 -0.21209838986 -0.21455040574 -0.18788278103 -0.23561164737
          -0.18713466823 -0.20230026543 -0.18699467182 -0.2382427156 -0.21929958463 -0.18239603937
          -0.15983688831 0.097581148148 0.077705577016 0.094708293676 0.073828041553 0.086319953203
          0.044479340315 0.040584981441 0.060056932271 0.027343202382 0.061884112656 0.052240818739
          0.05963756144 0.026858374476 0.041335090995 0.065304450691 0.079366281629 0.30340522528
          0.30239793658 0.30357480049 0.30254602432 0.30289077759 0.30127286911 0.29806938767
          0.30026638508 0.30071622133 0.30151748657 0.30256938934 0.29693108797 0.30361124873
          0.30310446024 0.30287075043 0.30052226782 0.4704631269 0.48882135749 0.47238841653
          0.49488091469 0.48053875566 0.52534675598 0.52348530293 0.50482106209 0.54429161549
          0.5065677762 0.51891058683 0.50064235926 0.54891693592 0.53334659338 0.50490492582
          0.48367992043 0.58880937099 0.61398231983 0.59006839991 0.6245945096 0.60667967796
          0.6657063961 0.66513460875 0.63670945168 0.69203716516 0.64100295305 0.65875720978
          0.63091188669 0.69774824381 0.67760062218 0.64096999168 0.60476726294 0.61565548182
          0.65143746138 0.61829668283 0.66390502453 0.63877147436 0.72224110365 0.72283774614
          0.68342620134 0.75786262751 0.68633455038 0.71099662781 0.67744940519 0.76532673836
          0.73649156094 0.68439757824 0.64093077183 0.55785387754 0.59649115801 0.56167286634
          0.61188060045 0.58354324102 0.67662549019 0.67698550224 0.63285553455 0.716383636
          0.63605558872 0.66422116756 0.62623375654 0.7241499424 0.69325816631 0.63606232405
          0.58576703072 0.39851090312 0.44019863009 0.40331307054 0.45482474566 0.42563477159
          0.52002334595 0.51993328333 0.47653073072 0.55891984701 0.48034632206 0.50888127089
          0.47150611877 0.56781834364 0.53929418325 0.48115924001 0.43007317185 0.1570879817
          0.19919906557 0.16117884219 0.21404562891 0.18627099693 0.27919566631 0.28142392635
          0.23744404316 0.31791692972 0.23952396214 0.26744273305 0.23389972746 0.3267954886
          0.29786926508 0.24181912839 0.19133995473 -0.10362166911 -0.056805428118 -0.10016909987
          -0.039903998375 -0.069498509169 0.030167277902 0.035179596394 -0.013950007968 0.07105204463
          -0.012513293885 0.017494935542 -0.014723019674 0.078577771783 0.049607980996 -0.0079666478559
          -0.065086819232 -0.32884684205 -0.27951154113 -0.32658651471 -0.26048570871 -0.2906268537
          -0.18736298382 -0.17841602862 -0.23293109238 -0.1435316205 -0.23168739676 -0.20112502575
          -0.23245176673 -0.13806553185 -0.16907441616 -0.22728091478 -0.2879588902 -0.51637345552
          -0.46067291498 -0.51438212395 -0.4399728179 -0.47399458289 -0.35420900583 -0.34284079075
          -0.40720030665 -0.30217441916 -0.40675020218 -0.37232038379 -0.40669822693 -0.29853364825
          -0.33674317598 -0.40331244469 -0.47114002705 -0.6695778966 -0.60829383135 -0.66856265068
          -0.58498632908 -0.6224950552 -0.48740011454 -0.47422555089 -0.54759502411 -0.42818304896
          -0.5483071804 -0.51038497686 -0.54680263996 -0.42684319615 -0.47199684381 -0.54695719481
          -0.62157273293 -0.80192583799 -0.74161577225 -0.80243706703 -0.71687680483 -0.75453770161
          -0.62011641264 -0.60598343611 -0.68108928204 -0.55925303698 -0.67964041233 -0.64289146662
          -0.68202239275 -0.55878633261 -0.60498648882 -0.67891359329 -0.7559735775 -0.0082232598215
          -0.041080851108 -0.0018866161117 -0.058133531362 -0.038428496569 -0.11503947526 -0.12433623523
          -0.077225409448 -0.152697891 -0.078618876636 -0.10185403377 -0.075155951083 -0.14987775683
          -0.12205129862 -0.080732539296 -0.027894968167 -0.14670492709 -0.14684830606 -0.15589059889
          -0.14106550813 -0.14483587444 -0.15252938867 -0.14564548433 -0.015605921857 -0.027194675058
          -0.012316828594 0.078767858446 0.05859862268 0.081835098565 -0.034879051149 0.047206830233
          -0.02767361328 0.058282468468 -0.052004788071 -0.053211156279 -0.038901023567 0.012989592738
          0.0088047580793 0.036971610039 -0.063683710992 -0.0098497224972 -0.040419030935 0.035228278488
          -0.048653073609 0.01936785318 -0.037124067545 0.038549195975 -0.065520219505 -0.011141546071
          -0.057254035026 0.0035842240322 -0.043362636119 0.029703779146 -0.021835383028 0.06657128036
          0.14214789867 0.11696340144 0.14392025769 0.10407602787 0.11891613156 0.061680942774
          0.05693102628 0.090792678297 0.034782163799 0.088698342443 0.070420369506 0.090600654483
          0.033017158508 0.050854187459 0.083981402218 0.12423473597 0.15743687749 0.13686707616
          0.15940968692 0.12567178905 0.13804624975 0.092532217503 0.08895252645 0.11613686383
          0.069461390376 0.11392419785 0.098426535726 0.11700553447 0.06775867939 0.083188377321
          0.10914658755 0.14398723841 0.16119070351 0.1476238668 0.16434893012 0.13905228674
          0.14737005532 0.11318793148 0.11008264124 0.1317307204 0.095855504274 0.13029690087
          0.11887848377 0.13424381614 0.095566436648 0.10842598975 0.12833800912 0.15442623198
          0.20305269957 0.18756979704 0.20543381572 0.17947928607 0.18939962983 0.14914642274
          0.14500659704 0.16918958724 0.13100105524 0.16877557337 0.15598809719 0.16973559558
          0.13060560822 0.14451529086 0.16612355411 0.19333572686 0.25532692671 0.23553460836
          0.25574174523 0.22590486705 0.23672945797 0.19495666027 0.19045242667 0.21566492319
          0.17496545613 0.21510791779 0.20041790605 0.21528172493 0.17286616564 0.18609169126
          0.20938304067 0.24018368125 0.22961618006 0.21713204682 0.22978793085 0.2105332762
          0.21710266173 0.19289761782 0.19142434001 0.20587258041 0.18175795674 0.20451067388
          0.19419761002 0.20460012555 0.17717759311 0.18322986364 0.19786724448 0.21873126924
          0.13351894915 0.1259354502 0.1343023479 0.12216602266 0.12558628619 0.11104699224
          0.11009068042 0.11817591637 0.10501881689 0.11802698672 0.11252886802 0.11806704104
          0.10368944705 0.10638623685 0.11552853137 0.12802618742 0.0071526956744 0.013603758067
          0.0095867300406 0.01498181466 0.0098042469472 0.021178210154 0.01997154206 0.017564540729
          0.023062588647 0.017896996811 0.020478792489 0.016713740304 0.024819571525 0.023601772264
          0.017169818282 0.013280223124 -0.12732639909 -0.10949923098 -0.12737481296 -0.10118389875
          -0.11277903616 -0.073259927332 -0.07090870291 -0.091693393886 -0.056911893189 -0.090432956815
          -0.078429944813 -0.092934533954 -0.055541027337 -0.066919215024 -0.089172534645 -0.1143829152
          -0.24146878719 -0.22160069644 -0.24067662656 -0.2129689157 -0.22502069175 -0.18158993125
          -0.17834618688 -0.20238119364 -0.16305230558 -0.2008382827 -0.1872677356 -0.20186540484
          -0.16109173 -0.17383155227 -0.19788295031 -0.22524623573 -0.32105830312 -0.30778828263
          -0.32037261128 -0.30292898417 -0.31070196629 -0.28274670243 -0.27911457419 -0.29421007633
          -0.271884799 -0.2945716083 -0.2868694663 -0.29206350446 -0.27118659019 -0.27817505598
          -0.29303377867 -0.30853995681 -0.34632071853 -0.34509372711 -0.3468798399 -0.34375807643
          -0.3437627852 -0.34105864167 -0.33796927333 -0.34193274379 -0.34012234211 -0.34336584806
          -0.34170669317 -0.33916369081 -0.34077048302 -0.3393163383 -0.34072041512 -0.34313330054
          -0.30253818631 -0.31196436286 -0.3023943305 -0.31535112858 -0.30778709054 -0.3326536119
          -0.33259990811 -0.32085239887 -0.3450332582 -0.32156473398 -0.32754078507 -0.31760767102
          -0.34504038095 -0.33405685425 -0.31874322891 -0.30738073587 -0.19276848435 -0.21691337228
          -0.19362479448 -0.2246671617 -0.20770844817 -0.26594951749 -0.26961153746 -0.24007436633
          -0.29206070304 -0.24004210532 -0.25584861636 -0.2375445962 -0.29299166799 -0.27131551504
          -0.23748533428 -0.21002860367 -0.03064695932 -0.067222982645 -0.030420389026 -0.08079957962
          -0.05709028244 -0.14392408729 -0.15168498456 -0.10419924557 -0.18378785253 -0.10467465967
          -0.12847711146 -0.10120299459 -0.1818831116 -0.15042567253 -0.10189405084 -0.055995557457
          0.19698417187 0.1460993588 0.1979291141 0.12694905698 0.15897075832 0.04367711395
          0.031924460083 0.095336988568 -0.0077790464275 0.094608932734 0.063792936504 0.096433207393
          -0.0068275784142 0.033713333309 0.097373150289 0.15956427157 0.45700272918 0.40004074574
          0.45747467875 0.37693804502 0.41188499331 0.28243157268 0.26814165711 0.3421459794
          0.22205115855 0.34119454026 0.30472865701 0.3424269855 0.22192105651 0.26833644509
          0.34063705802 0.41422781348 0.70432811975 0.64257746935 0.7042568922 0.61922830343
          0.65762615204 0.52041774988 0.50565248728 0.58138775826 0.45857462287 0.58178681135
          0.54388868809 0.58049297333 0.45836704969 0.50528454781 0.58132767677 0.65673577785
          -0.15515637398 -0.14015030861 -0.15479548275 -0.13560174406 -0.14346601069 -0.12069407851
          -0.11623774469 -0.12815403938 -0.11313489825 -0.12897522748 -0.1238226369 -0.12561877072
          -0.11399361491 -0.11802438647 -0.12879219651 -0.14184348285 -0.15065816045 -0.14959640801
          -0.14992208779 -0.14981792867 -0.1491959393 -0.14906860888 -0.1476752609 -0.13426366448
          -0.097592137754 -0.061923645437 -0.037194233388 -0.0983966887 -0.16115234792 -0.098780885339
          -0.03422152251 -0.098890967667 -0.057849250734 -0.14261634648 -0.10086946189 -0.16525825858
          -0.10886199772 -0.050855830312 0.0083988523111 0.045428644866 -0.050663489848 -0.14556713402
          -0.051059231162 0.045668587089 -0.050883039832 0.0083185238764 -0.11088144779 -0.051086172462
          -0.14674204588 -0.064232818782 -0.0014187486377 0.061542361975 0.1011691615 -0.00079127494246
          -0.10044167936 0.00043041794561 0.10029301047 0.00046849087812 0.061964835972 -0.058782838285
          0.0023460881785 -0.097618438303 -0.031955543905 0.022036168724 0.076410718262 0.10888806731
          0.023028343916 -0.061053700745 0.024018764496 0.10541622341 0.023947549984 0.07286272198
          -0.023850951344 0.023947535083 -0.056445129216 -0.012097751722 0.020117631182 0.053545042872
          0.072111904621 0.020239401609 -0.031413383782 0.020399549976 0.070536792278 0.021095829085
          0.050624217838 -0.0077065238729 0.022030869499 -0.028268905357 5.7757514049e-12 3.1799594208e-11
          -2.2554824328e-11 2.0547056894e-13 3.4876099404e-12 -1.2477147137e-12 -2.0638256729e-12 6.2262044478e-13
          -2.0634847455e-13 0 0 0 5.7230598299e-13
        </DataArray>
        <DataArray type="Float32" Name="uz" format="ascii" RangeMin="-0.58075881004" RangeMax="0.16704905033">
          0.014386920258 0.020202366635 0.017585257068 -0.017755709589 -0.048301938921 -0.054112810642
          -0.048121746629 0.020318489522 0.028481345624 0.010451010428 -0.010785513557 -0.049110546708
          -0.042549978942 -0.026003841311 0.018425222486 -0.00284161116 -0.0618156977 -0.0405199714
          0.021746169776 -0.0076497630216 -0.044778268784 0.02430203557 -0.040358934551 -0.057744223624
          -0.023133026436 0.015591874719 -0.01483858563 -0.58075881004 -0.46485602856 -0.53858453035
          -0.57093864679 -0.45732170343 -0.53598886728 -0.47115451097 -0.45644384623 -0.55222803354
          -0.53354108334 -0.29857492447 -0.23108227551 -0.35796520114 -0.28814929724 -0.22892716527
          -0.35204726458 -0.20155419409 -0.19394469261 -0.39264494181 -0.38091176748 -0.36923912168
          -0.3522361517 -0.32132542133 -0.3227238059 -0.24638104439 -0.23023629189 -0.34679692984
          -0.32286730409 -0.46304908395 -0.43860062957 -0.43907281756 -0.44082912803 -0.55020016432
          -0.45579716563 -0.51218914986 -0.4639236033 -0.53130239248 -0.32268494368 -0.26358267665
          -0.36757519841 -0.24488964677 -0.39858421683 -0.38243728876 -0.33405837417 -0.28504940867
          -0.36764833331 -0.46124479175 -0.4297362268 -0.47930565476 -0.43032622337 -0.46146762371
          -0.43204069138 -0.46636483073 -0.35847842693 -0.32893174887 -0.38453486562 -0.31719505787
          -0.39890611172 -0.3879134357 -0.36725485325 -0.33610862494 -0.3776820302 -0.42718324065
          -0.41879141331 -0.37550333142 -0.39016991854 -0.38926428556 -0.37794908881 -0.36683416367
          -0.39510944486 -0.41098618507 -0.40128931403 -0.40067502856 -0.38925880194 -0.3809017837
          -0.41258299351 -0.38637590408 -0.37289273739 -0.3650765121 -0.40385326743 -0.2680927515
          -0.34731951356 -0.31828954816 -0.31820493937 -0.25904551148 -0.42765951157 -0.49149516225
          -0.41525048018 -0.48302209377 -0.37537658215 -0.36818876863 -0.45606920123 -0.43275815248
          -0.36101686954 -0.29467704892 -0.39033958316 -0.18499869108 -0.31161087751 -0.25965172052
          -0.27123305202 -0.17687356472 -0.45080047846 -0.5496583581 -0.42266622186 -0.54233855009
          -0.36231091619 -0.35746186972 -0.48619922996 -0.46584823728 -0.35055011511 -0.24089662731
          -0.37515228987 -0.13410952687 -0.28469851613 -0.21770434082 -0.2420167625 -0.13127680123
          -0.45669624209 -0.56817466021 -0.41715845466 -0.56697124243 -0.34981271625 -0.34848168492
          -0.485956043 -0.48208659887 -0.34724760056 -0.21343773603 -0.35165131092 -0.12172903866
          -0.27207091451 -0.20032839477 -0.23451015353 -0.12663473189 -0.44759404659 -0.55303174257
          -0.40455305576 -0.55745142698 -0.34079638124 -0.34280338883 -0.46806061268 -0.47806239128
          -0.34737721086 -0.21323256195 -0.33314633369 -0.14365337789 -0.26577201486 -0.20190665126
          -0.24152651429 -0.15479764342 -0.41893929243 -0.50132668018 -0.3761022985 -0.51131045818
          -0.32785823941 -0.33547636867 -0.42416572571 -0.44994193316 -0.34270185232 -0.23046036065
          -0.30931648612 -0.17556288838 -0.25739085674 -0.20721311867 -0.25071007013 -0.1932451725
          -0.37352213264 -0.42028823495 -0.33196398616 -0.4399946332 -0.30777046084 -0.32229137421