<VTKFile type="UnstructuredGrid" version="1.0" byte_order="LittleEndian" header_type="UInt64">
  <UnstructuredGrid>
    <Piece NumberOfPoints="791" NumberOfCells="973">
      <PointData>
        <DataArray type="Float32" Name="ux" format="ascii" RangeMin="-0.71887028217" RangeMax="0.9171282649">
          -0.010193762369 -0.082651913166 0.014918562025 0.011692179367 0.0079830912873 0.024932589382
          -0.070236131549 -0.1166813001 -0.20179577172 -0.19618871808 -0.12666317821 -0.19245885313
          -0.095552310348 -0.18335105479 0.091845981777 0.076543331146 0.11050096899 0.087170906365
          -0.11985102296 -0.20050668716 -0.13386134803 -0.20019839704 -0.21380421519 0.11710687727
          0.11002943665 0.11105682701 -0.061525601894 -0.51963949203 -0.57296866179 -0.58700364828
          -0.36194846034 -0.43348360062 -0.46721711755 -0.51633232832 -0.34504070878 -0.46887555718
          -0.27753272653 -0.57231378555 -0.64619964361 -0.61241769791 -0.42481437325 -0.53912121058
          -0.49020808935 -0.58299505711 -0.4426099658 -0.55962395668 -0.40470832586 -0.51230406761
          -0.33603221178 -0.67071759701 -0.5799729228 -0.5205103755 -0.34651190042 -0.47144991159
          -0.26963561773 -0.45272773504 -0.24649341404 -0.6467743516 -0.54628890753 -0.52081048489
          -0.52319228649 -0.51454085112 -0.52355355024 -0.51920485497 -0.52956908941 -0.53264838457
          -0.52679932117 -0.53073132038 -0.52642691135 -0.52600777149 -0.52490979433 -0.52329182625
          -0.51665252447 -0.51625305414 -0.51376980543 -0.42298775911 -0.35758897662 -0.32939851284
          -0.43065130711 -0.49068805575 -0.36140534282 -0.29162165523 -0.31471338868 -0.34647643566
          -0.38011306524 -0.42931506038 -0.25469779968 -0.41516277194 -0.47077053785 -0.50127506256
          -0.26701155305 -0.31872293353 -0.2070287168 -0.16327905655 -0.34303086996 -0.44074815512
          -0.22193397582 -0.071755520999 -0.13450405002 -0.19206024706 -0.25106811523 -0.34256324172
          -0.014260328375 -0.32224479318 -0.42519462109 -0.47633713484 -0.045639719814 -0.12865111232
          -0.013731420971 0.030899507925 -0.15815661848 -0.26699367166 -0.028698785231 0.12948288023
          0.060999162495 0.0090452246368 -0.060864817351 -0.1604911685 0.18278095126 -0.13355064392
          -0.25737079978 -0.31330832839 0.14295496047 0.059056483209 0.20003181696 0.24457274377
          0.033446568996 -0.088556729257 0.20469017327 0.40438088775 0.30763679743 0.25384804606
          0.15694600344 0.037469495088 0.4612904489 0.069670498371 -0.081098936498 -0.14065144956
          0.40261244774 0.27614229918 0.45686328411 0.50880903006 0.2465838939 0.095185518265
          0.46954920888 0.72206526995 0.59761983156 0.5310331583 0.40364217758 0.25139302015
          0.78781241179 0.2867179215 0.095400772989 0.026424512267 0.70386737585 0.43478918076
          0.60158413649 0.6459043026 0.40698370337 0.26650333405 0.60999071598 0.85302788019
          0.73224639893 0.66357839108 0.54687327147 0.40428417921 0.9171282649 0.43338951468
          0.25189119577 0.19552017748 0.83379250765 0.50438028574 0.63085663319 0.66851902008
          0.47946098447 0.37529447675 0.63449680805 0.83722740412 0.73654294014 0.67880177498
          0.5871309042 0.47144508362 0.88670086861 0.48594939709 0.3474573791 0.3132648468
          0.81417971849 0.35854771733 0.46357154846 0.49329426885 0.33878749609 0.25093880296
          0.46713861823 0.63055580854 0.55044096708 0.50230717659 0.43378439546 0.33286035061
          0.67012089491 0.34625148773 0.22906894982 0.19713485241 0.61380499601 0.11673136801
          0.18812815845 0.20838992298 0.10277277231 0.043060496449 0.1852209717 0.29112899303
          0.24110259116 0.20829610527 0.16667658091 0.10098806024 0.32416975498 0.11256646365
          0.03972645849 0.011463448405 0.29009464383 -0.16083931923 -0.13999406993 -0.13444167376
          -0.16001228988 -0.17805454135 -0.14804941416 -0.13915984333 -0.13579513133 -0.15256138146
          -0.15020793676 -0.16356217861 -0.13215388358 -0.16206209362 -0.16983638704 -0.17735871673
          -0.12373078614 -0.45265948772 -0.46883046627 -0.4713588655 -0.44736048579 -0.43463259935
          -0.4588406086 -0.49964568019 -0.48341828585 -0.45991313457 -0.46038338542 -0.43863731623
          -0.51282960176 -0.43113806844 -0.41851183772 -0.42126753926 -0.49810811877 -0.6426653266
          -0.6694547534 -0.67186582088 -0.64336508512 -0.62457543612 -0.66062796116 -0.69754415751
          -0.68635588884 -0.66069716215 -0.66161227226 -0.63665372133 -0.71887028217 -0.62944102287
          -0.61597824097 -0.61650383472 -0.70269739628 -0.58796906471 -0.59845072031 -0.589179039
          -0.59905910492 -0.59557205439 -0.59918290377 -0.60363698006 -0.60438507795 -0.59330809116
          -0.59864866734 -0.60488820076 -0.61849296093 -0.59864878654 -0.60592579842 -0.60584259033
          -0.60680061579 -0.26065865159 -0.24912545085 -0.24509301782 -0.26779147983 -0.2802990973
          -0.2487347424 -0.22956742346 -0.24124567211 -0.24055801332 -0.25425592065 -0.26688987017
          -0.22615221143 -0.26447761059 -0.28190398216 -0.29361662269 -0.23287574947 0.11476834863
          0.13439768553 0.13916443288 0.1154204756 0.09638851136 0.13126248121 0.15604807436
          0.14512643218 0.13414940238 0.12924861908 0.11170495301 0.1604167968 0.11370339245
          0.10056747496 0.092757388949 0.155048877 0.41896483302 0.42266246676 0.4177057147
          0.41931369901 0.41658779979 0.41669371724 0.42012745142 0.42078614235 0.410774827
          0.42203259468 0.41486859322 0.42224177718 0.4093722403 0.4106387198 0.41322594881
          0.42088776827 0.64903581142 0.64563935995 0.64114892483 0.65219259262 0.65099447966
          0.64918255806 0.64227694273 0.64330089092 0.6452921629 0.64872026443 0.65337044001
          0.6432363987 0.65354925394 0.6496181488 0.64908033609 0.64041680098 -0.033637799323
          -0.13286019862 -0.12359703332 -0.061804067343 0.023475479335 -0.18974004686 -0.29783922434
          -0.21290621161 -0.24486069381 -0.13903996348 -0.092416718602 -0.28479728103 -0.15237805247
          -0.053799014539 0.017510810867 -0.2176386416 -0.085898958147 -0.19572284818 -0.1308042109
          -0.051643904299 0.0063653392717 -0.029607851058 0.065156660974 0.21084448695 0.2229154855
          0.22579903901 0.4836499691 0.50157207251 0.50389033556 0.20767195523 0.47576108575
          0.19469429553 0.47007715702 0.22501984239 0.24766002595 0.23601800203 0.50199222565
          0.53938746452 0.51748800278 0.23234690726 0.51372742653 0.2194737941 0.49472689629
          0.20701879263 0.47082689404 0.24569486082 0.54404562712 0.2074984014 0.4699421525
          0.18843574822 0.44269624352 0.18534386158 0.45059937239 0.23733654618 0.52689611912
          0.65606361628 0.65082812309 0.64186096191 0.66428405046 0.67756652832 0.65864080191
          0.6537656188 0.65272212029 0.65683501959 0.66023242474 0.66373866796 0.6424279213
          0.65688669682 0.66801905632 0.6800095439 0.63422584534 0.64567053318 0.63180965185
          0.62007641792 0.6648067832 0.68230640888 0.63936257362 0.59707826376 0.61565667391
          0.62481147051 0.64703476429 0.67329198122 0.58838069439 0.66791832447 0.70245021582
          0.70634424686 0.59535676241 0.52285861969 0.50699448586 0.49451673031 0.53688573837
          0.55288922787 0.51223063469 0.47753089666 0.49550154805 0.50522899628 0.52115535736
          0.54097229242 0.46663925052 0.54063677788 0.565554142 0.57563400269 0.47635737062
          0.2978489697 0.30384737253 0.3033798337 0.30007430911 0.29966792464 0.30162015557
          0.29960614443 0.30453595519 0.29764407873 0.30288332701 0.29969078302 0.29953348637
          0.2960729897 0.30097338557 0.3076569438 0.3005322814 -0.028710786253 -0.015921391547
          -0.011081999168 -0.029305947945 -0.037952881306 -0.012011365034 -0.0004189205938 -0.0046962681226
          -0.01028159447 -0.018566368148 -0.027567526326 0.0085957422853 -0.02204458043 -0.034202568233
          -0.041300274432 0.0048143719323 -0.34281602502 -0.28173983097 -0.24791376293 -0.3662019074
          -0.42688593268 -0.28111532331 -0.1853377074 -0.23113335669 -0.25424352288 -0.30624088645
          -0.36112678051 -0.15635961294 -0.33849695325 -0.42057195306 -0.45798489451 -0.17670220137
          -0.42375037074 -0.31504935026 -0.26956778765 -0.45079904795 -0.55559939146 -0.32172083855
          -0.17082536221 -0.23746031523 -0.28368192911 -0.35768800974 -0.45243686438 -0.12079773843
          -0.42481046915 -0.54680114985 -0.60559862852 -0.15621720254 -0.33766755462 -0.19196976721
          -0.14203113317 -0.36692911386 -0.49504113197 -0.19985714555 -0.0073545393534 -0.092383258045
          -0.15491345525 -0.23993371427 -0.36530160904 0.050377253443 -0.33577799797 -0.48646387458
          -0.54936522245 0.0040908050723 -0.29082155228 -0.11620561779 -0.062250293791 -0.32127144933
          -0.47099840641 -0.11734133959 0.12019515783 0.008936942555 -0.062643699348 -0.17556999624
          -0.31862923503 0.19285327196 -0.2810716033 -0.45720431209 -0.53404676914 0.12573355436
          -0.27545529604 -0.067597709596 0.0062357396819 -0.32004401088 -0.50378918648 -0.069588251412
          0.22668889165 0.086744040251 0.002433846239 -0.13502402604 -0.32156461477 0.31154063344
          -0.27996110916 -0.50693243742 -0.59390193224 0.22659851611 -0.17382976413 0.012125427835
          0.075364090502 -0.21937854588 -0.38635802269 0.00785306748 0.2750107944 0.1475084126
          0.069760352373 -0.05271781981 -0.22368851304 0.34722223878 -0.18801513314 -0.39686611295
          -0.47809553146 0.27365425229 0.013702476397 0.11789759248 0.15003183484 -0.01175862737
          -0.10663917661 0.11755156517 0.28151139617 0.2008138895 0.15853604674 0.084102414548
          -0.018757889047 0.3190741837 0.0045349686407 -0.12269286811 -0.16181141138 0.26624369621
          0.16729000211 0.23061600327 0.2443009913 0.15891824663 0.10302913189 0.22992734611
          0.3251426518 0.27760654688 0.25303924084 0.21035836637 0.15401831269 0.34509658813
          0.16032026708 0.08953832835 0.0703067258 0.30894175172 0.20969751477 0.24374571443
          0.24280072749 0.21137312055 0.18452945352 0.25520893931 0.31592944264 0.2796574235
          0.27011027932 0.23965421319 0.21197830141 0.32381746173 0.21587567031 0.1736330837
          0.16556017101 0.2907743156 0.1382470578 0.17146188021 0.17172935605 0.14528504014
          0.12118031085 0.19195067883 0.22661750019 0.20229405165 0.20388787985 0.17543998361
          0.15722768009 0.22969414294 0.17121376097 0.14094024897 0.1247542575 0.20905868709
          -0.010109425522 0.0059666000307 0.0031793452799 -0.0040457812138 -0.01104333438 0.021562447771
          0.033787216991 0.020909830928 0.033906653523 0.014207022265 0.010371765122 0.027854327112
          0.026531025767 0.011686677113 -0.0044253002852 0.02238711156 -0.14382728934 -0.15211120248
          -0.15726009011 -0.134801507 -0.12676922977 -0.14379368722 -0.16993565857 -0.15863136947
          -0.14473296702 -0.14298832417 -0.123135373 -0.17359210551 -0.11749414355 -0.10328688473
          -0.10947006196 -0.16911672056 -0.24578772485 -0.24848821759 -0.24568520486 -0.24318297207
          -0.2432282418 -0.25065028667 -0.26447701454 -0.25565838814 -0.25113978982 -0.24555383623
          -0.24299660325 -0.26534307003 -0.23956431448 -0.23344582319 -0.23222722113 -0.25933152437
          -0.044855892658 -0.048468530178 -0.086451947689 -0.0025457579177 0.007340490818 0.018546873704
          -0.010885003023 -0.036519553512 0.041636385024 -0.0062327357009 0.037181746215 -0.06257275492
          0.071917049587 0.07314798981 0.050640538335 -0.094534687698 -0.053891025484 -0.14651067555
          -0.062575936317 -0.041908081621 0.025330524892 0.022194821388 0.084585413337 -0.44829925895
          -0.51155388355 -0.44226530194 -0.26780113578 -0.29193615913 -0.26279753447 -0.14952540398
          -0.04571576789 -0.0095763830468 0.13255400956 0.15092019737 0.20704697073 -0.026283357292
          -0.50999701023 -0.57686054707 -0.49270001054 -0.28915849328 -0.32769724727 -0.30100956559
          -0.17123375833 -0.05109955743 -0.017842207104 0.14060784876 0.16038176417 0.22489777207
          -0.039679396898 -0.56716221571 -0.65069073439 -0.55702489614 -0.33143863082 -0.36658942699
          -0.33169418573 -0.19002638757 -0.058451682329 -0.021833434701 0.15218135715 0.16444887221
          0.23952488601 -0.049305722117 -0.47333192825 -0.55240231752 -0.48691484332 -0.28789830208
          -0.31997320056 -0.28669428825 -0.1735086143 -0.050511140376 -0.034460585564 0.12308199704
          0.10092335939 0.18009462953 -0.071347177029 -0.26473227143 -0.31436768174 -0.28013750911
          -0.16198159754 -0.17722259462 -0.16124787927 -0.082975536585 -0.0029079585802 0.0059368708171
          0.10717140138 0.080581285059 0.13241396844 -0.02721304819 5.173212414e-10 -2.1778252535e-09
          -5.3084769219e-11 -3.9756919978e-11 -2.085861206e-10 -1.08433219e-11 4.0017614222e-11 -1.4142299528e-12
          3.2016906894e-14 0 0 0 -1.6812291576e-12
        </DataArray>
        <DataArray type="Float32" Name="uy" format="ascii" RangeMin="-0.99401646852" RangeMax="1.3612653017">
          0.35484915972 0.30219501257 0.27930918336 0.53423762321 0.69519144297 0.54906874895
          0.59432595968 0.35488650203 0.32121282816 0.40988820791 0.54112058878 0.62025177479
          0.69938611984 0.617372334 0.31441143155 0.40262186527 0.60862588882 0.60792869329
          0.24312242866 0.48184677958 0.48320686817 0.2430087477 0.47791498899 0.47155979276
          0.46622616053 0.23814833164 0.54458987713 -0.13625048101 -0.18374881148 -0.13354054093
          0.3438654542 0.26459589601 0.3457981348 -0.20658418536 0.2281024456 -0.17613333464
          0.28015461564 -0.29277995229 -0.31086754799 -0.23801921308 0.094213746488 0.068423427641
          0.17935238779 -0.35097771883 0.0088954353705 -0.23892167211 0.17688573897 -0.2690743804
          0.12548363209 -0.23721198738 0.1761418879 -0.33815258741 0.019359115511 -0.29736065865
          0.081729479134 -0.23274038732 0.17907243967 -0.16590848565 0.28488305211 -0.63315045834
          -0.63129299879 -0.6273676753 -0.63325452805 -0.63500058651 -0.64045113325 -0.63098353148
          -0.62765204906 -0.64667963982 -0.636100173 -0.64146250486 -0.61427080631 -0.64900869131
          -0.64233928919 -0.63753241301 -0.61298000813 -0.99401646852 -0.92353671789 -0.9864423871
          -0.90735387802 -0.93895083666 -0.81470626593 -0.78829354048 -0.85586380959 -0.76302361488
          -0.86778193712 -0.83778172731 -0.84027814865 -0.76832705736 -0.8005207181 -0.86357420683
          -0.92116886377 -0.96713095903 -0.8527443409 -0.96787178516 -0.80188894272 -0.86996078491
          -0.6335709691 -0.60420155525 -0.73747777939 -0.53290951252 -0.73736530542 -0.67203551531
          -0.73162013292 -0.53773707151 -0.60498303175 -0.72668790817 -0.87085491419 -0.62687110901
          -0.50233775377 -0.62537282705 -0.44712749124 -0.52712035179 -0.26029333472 -0.23980422318
          -0.38259252906 -0.14676943421 -0.37811899185 -0.29481047392 -0.39061561227 -0.14151950181
          -0.22111009061 -0.36702883244 -0.53637611866 -0.30469536781 -0.16180644929 -0.30931434035
          -0.10400390625 -0.19177474082 0.12797148526 0.15676821768 -0.018034977838 0.26963719726
          -0.016104292125 0.076140791178 -0.020442923531 0.27173510194 0.16571831703 -0.014091377147
          -0.20089186728 -0.068011462688 0.10384448618 -0.073946975172 0.1721778065 0.06789919734
          0.45853379369 0.49885430932 0.27900999784 0.64481288195 0.27735644579 0.39008018374
          0.26994949579 0.64277255535 0.50114744902 0.28076282144 0.054045289755 0.22922776639
          0.38881587982 0.22152230144 0.45431032777 0.35233527422 0.73651063442 0.78064060211
          0.55812972784 0.91921836138 0.55976343155 0.66439467669 0.55249536037 0.91033232212
          0.76612275839 0.55142790079 0.3375403583 0.43262216449 0.55125498772 0.42270046473
          0.60706651211 0.53025120497 0.82314306498 0.85634404421 0.67750447989 0.9711214304
          0.68309175968 0.76891899109 0.67450684309 0.96311992407 0.84188008308 0.68192261457
          0.5064483285 0.36611622572 0.47411596775 0.3674607873 0.51353895664 0.44106090069
          0.70670706034 0.73629593849 0.58930319548 0.83132791519 0.583994627 0.65709197521
          0.58454239368 0.82748627663 0.7263610363 0.57527446747 0.44530332088 0.11301971227
          0.18840645254 0.11316733807 0.21689623594 0.16906416416 0.34393951297 0.36449596286
          0.266720891 0.42046037316 0.26558241248 0.31167271733 0.26679548621 0.41599285603
          0.35687604547 0.26373383403 0.17087824643 -0.11866239458 -0.10244071484 -0.11689452082
          -0.10162446648 -0.10264010727 -0.096030905843 -0.095114931464 -0.099011264741 -0.092407755554
          -0.097077250481 -0.092520236969 -0.092059895396 -0.08640601486 -0.083506673574 -0.090115465224
          -0.10072294623 -0.20083212852 -0.21586328745 -0.19301794469 -0.22918348014 -0.21537834406
          -0.27104830742 -0.2762787044 -0.2376960665 -0.3008903563 -0.24328151345 -0.25818353891
          -0.23190116882 -0.29270729423 -0.27100670338 -0.23952877522 -0.19871635735 -0.16646304727
          -0.18130740523 -0.15373170376 -0.19599588215 -0.18624182045 -0.23454020917 -0.2466443032
          -0.20861800015 -0.26316979527 -0.20740774274 -0.21967828274 -0.2044121027 -0.25003489852
          -0.22572535276 -0.20451648533 -0.16623264551 -0.1340919137 -0.13601760566 -0.11813355237
          -0.14378391206 -0.14630331099 -0.15858088434 -0.16659846902 -0.14728705585 -0.16584937274
          -0.14796167612 -0.15384405851 -0.14432129264 -0.15280070901 -0.14773260057 -0.14825338125
          -0.11742816865 -0.15366449952 -0.13238212466 -0.14846095443 -0.12811848521 -0.14351512492
          -0.094475157559 -0.097185045481 -0.11705813557 -0.082170933485 -0.11824525148 -0.10119671375
          -0.1112979278 -0.073808155954 -0.085583940148 -0.11246984452 -0.13537535071 -0.076521269977
          -0.059975799173 -0.080931976438 -0.046977140009 -0.057566411793 -0.023936405778 -0.023808773607
          -0.04320782423 -0.012100569904 -0.038266777992 -0.028685977682 -0.048342391849 -0.010284272954
          -0.018206821755 -0.035487949848 -0.071662023664 0.013762151822 0.012159845792 0.011473058723
          0.011451185681 0.0052389074117 0.017343103886 0.014383029193 0.011754732579 0.023925375193
          0.012753779069 0.01632736437 0.0062598381191 0.022453373298 0.019157227129 0.010786520317
          0.011272664182 -0.006272753235 -0.0014132614015 -0.004989261739 -0.0049835816026 -0.0076077119447
          0.01431760285 0.018712541088 0.0076404521242 0.017809599638 0.0033180748578 0.010543919168
          0.0093014258891 0.01846905984 0.011235731654 -0.0014480073005 -0.0037412571255 0.76125466824
          0.63103216887 0.76016390324 0.57905614376 0.65790951252 0.38027450442 0.36032783985
          0.51239091158 0.26027116179 0.50046032667 0.42032670975 0.5137937665 0.2460654676
          0.3334736228 0.49072557688 0.66270697117 0.36531764269 0.3447766304 0.25796702504
          0.48032090068 0.40521210432 0.24455232918 0.33089473844 -0.47342178226 -0.49009156227
          -0.48102578521 -0.65706771612 -0.67032015324 -0.65359884501 -0.49036774039 -0.67344415188
          -0.47782760859 -0.6585047245 -0.51635366678 -0.51142054796 -0.50157463551 -0.70741730928
          -0.71024751663 -0.68721288443 -0.52675580978 -0.73384404182 -0.50258553028 -0.68405801058
          -0.51009953022 -0.68987482786 -0.49479570985 -0.67908596992 -0.52762138844 -0.726606071
          -0.51131910086 -0.68935674429 -0.49207884073 -0.662535429 -0.48531803489 -0.65867710114
          -0.62123334408 -0.60300183296 -0.61248135567 -0.60190135241 -0.60903435946 -0.57993996143
          -0.57382053137 -0.58581495285 -0.57595932484 -0.59215611219 -0.58268243074 -0.57797986269
          -0.57249522209 -0.57054102421 -0.58635425568 -0.59328013659 -0.36321556568 -0.33023950458
          -0.35489183664 -0.32602891326 -0.34809663892 -0.26804482937 -0.25356146693 -0.29708501697
          -0.23104482889 -0.30396002531 -0.28551471233 -0.28910121322 -0.23419515789 -0.26429048181
          -0.30860778689 -0.33006080985 -0.099437050521 -0.068427570164 -0.089806258678 -0.062119591981
          -0.084951519966 -0.012541283853 -0.0085054766387 -0.038479510695 0.010955419391 -0.041189502925
          -0.027362830937 -0.042518537492 0.011312672868 -0.011421688832 -0.050924371928 -0.07159909606
          0.13876804709 0.145905599 0.14261397719 0.14356802404 0.13028016686 0.16428536177
          0.16517451406 0.16129384935 0.16370922327 0.15377220511 0.15856802464 0.15879815817
          0.16714127362 0.16441342235 0.14572390914 0.1521898061 0.27188241482 0.25936666131
          0.27430424094 0.25735881925 0.26236981153 0.24424007535 0.24255113304 0.24889722466
          0.23519980907 0.24983209372 0.24431991577 0.24667310715 0.23370268941 0.23926407099
          0.25134405494 0.2626092732 0.5502756834 0.47186803818 0.54193204641 0.44669395685
          0.49412283301 0.32453414798 0.31093505025 0.39297312498 0.25960466266 0.39794173837
          0.35234692693 0.39645543694 0.25292250514 0.30303832889 0.3984349072 0.48429334164
          0.78245389462 0.65325719118 0.77395009995 0.60739994049 0.68531942368 0.41444724798
          0.38985034823 0.52978438139 0.30655932426 0.53311312199 0.45139864087 0.52336364985
          0.29783087969 0.37070831656 0.52215594053 0.67421275377 0.7713997364 0.62374091148
          0.7637566328 0.56700652838 0.65494441986 0.34760221839 0.31406319141 0.48275008798
          0.21132753789 0.4832226634 0.393191576 0.48169347644 0.205218032 0.30466428399
          0.47311919928 0.65198284388 0.64647805691 0.47340285778 0.64930027723 0.3992510736
          0.50454002619 0.12690094113 0.081626668572 0.29660376906 -0.045337285846 0.29360026121
          0.18542999029 0.29893246293 -0.044653892517 0.083053842187 0.28863853216 0.51645338535
          0.48504143953 0.27044194937 0.48274573684 0.18276946247 0.31978288293 -0.16476239264
          -0.21268376708 0.052038453519 -0.38059434295 0.04927355051 -0.087884709239 0.052611291409
          -0.38686084747 -0.22453229129 0.041121654212 0.31567493081 0.18690761924 -0.015663510188
          0.1791344136 -0.090702675283 0.039859775454 -0.41703018546 -0.45563989878 -0.21289874613
          -0.61176115274 -0.2165684402 -0.34350851178 -0.21287479997 -0.62250220776 -0.47509628534
          -0.21852146089 0.027479741722 -0.23400950432 -0.3389864862 -0.23367254436 -0.38038474321
          -0.31351548433 -0.5722527504 -0.59844094515 -0.44723135233 -0.69752812386 -0.4510062933
          -0.52780491114 -0.44386100769 -0.70019006729 -0.60457575321 -0.45228525996 -0.30770587921
          -0.46582058072 -0.52160286903 -0.45706653595 -0.55397152901 -0.51445913315 -0.66429132223
          -0.6738319397 -0.58358085155 -0.7396684885 -0.59191471338 -0.64271146059 -0.57436001301
          -0.74112570286 -0.68045079708 -0.5938129425 -0.49194076657 -0.44763442874 -0.47540473938
          -0.43575894833 -0.49523693323 -0.47607344389 -0.56525933743 -0.5702753067 -0.51375830173
          -0.61289256811 -0.52014535666 -0.55187386274 -0.50231748819 -0.61366695166 -0.57276803255
          -0.51675975323 -0.44654229283 -0.16441418231 -0.18508420885 -0.15155215561 -0.20137259364
          -0.19020798802 -0.22687286139 -0.22401866317 -0.20457006991 -0.23953190446 -0.21007220447
          -0.22185787559 -0.2002081275 -0.24462459981 -0.23309506476 -0.21288764477 -0.16628554463
          0.18724173307 0.18309696019 0.19408397377 0.17199517787 0.17340777814 0.17550109327
          0.18056546152 0.17915667593 0.17982277274 0.17871233821 0.17276635766 0.17842593789
          0.17162904143 0.16274040937 0.16249921918 0.19089873135 0.37767979503 0.38179844618
          0.37756592035 0.38403302431 0.37983205914 0.40691161156 0.41616141796 0.39291656017
          0.42954549193 0.39234527946 0.39885124564 0.38990658522 0.42651414871 0.40225970745
          0.38760712743 0.38116961718 0.5521056056 0.55645000935 0.551648736 0.55820894241
          0.55516266823 0.57691925764 0.58134645224 0.56514519453 0.58801627159 0.5649317503
          0.5731292963 0.5679345727 0.58781278133 0.57988059521 0.56799685955 0.55252790451
          -0.042821992189 -0.085150070488 -0.042182285339 -0.10266724229 -0.074220538139 -0.17367039621
          -0.17641575634 -0.12797091901 -0.21412236989 -0.13075889647 -0.15996126831 -0.12134350091
          -0.21928152442 -0.18801438808 -0.13059024513 -0.070710137486 0.17120856047 0.16009651124
          0.10355285555 0.23848769069 0.19820539653 0.096248097718 0.15279813111 1.0109264851
          0.80310952663 0.60233837366 0.47965115309 0.80663347244 1.1459861994 0.80542308092
          0.47742378712 0.80323654413 0.59958350658 1.0049126148 0.79804253578 1.13958323
          1.2129046917 0.96961522102 0.73516571522 0.59530639648 0.97558176517 1.3612653017
          0.97782802582 0.59238523245 0.96979629993 0.7274133563 1.1961610317 0.95399576426
          1.3574912548 0.98016107082 0.70949447155 0.45183172822 0.2983661294 0.71899467707
          1.1479964256 0.71920752525 0.30564308167 0.72010046244 0.46132069826 0.97179919481
          0.7142944932 1.140468359 0.49479684234 0.28891402483 0.071792006493 -0.067836180329
          0.28033703566 0.61188644171 0.27545237541 -0.062132682651 0.27505853772 0.070012226701
          0.47837164998 0.278226614 0.60368937254 0.13430352509 0.021487655118 -0.10704809427
          -0.19188159704 0.010937585495 0.2021471113 0.012246640399 -0.18869015574 0.011552739888
          -0.097961135209 0.13532653451 0.022067418322 0.19979351759 -3.3430817142e-11 -1.0250590654e-10
          8.1854426015e-11 -2.8499456267e-11 4.7191048812e-12 7.9834359609e-12 2.3072930827e-13 -2.5031652098e-12
          5.8745163681e-13 0 0 0 -1.5968377879e-12
        </DataArray>
        <DataArray type="Float32" Name="uz" format="ascii" RangeMin="-0.53196913004" RangeMax="0.33628454804">
          -0.10008882731 -0.044957190752 -0.14026914537 -0.12502941489 -0.14738817513 -0.17581817508
          -0.068782307208 -0.016416180879 0.068283304572 0.056085210294 -0.011623444036 0.072846367955
          -0.05070764944 0.033644009382 -0.21802860498 -0.17679210007 -0.27226567268 -0.20934870839
          0.002302674111 0.069984890521 0.0003570879926 0.087418735027 0.095943711698 -0.29657670856
          -0.23216383159 -0.25013515353 -0.064134918153 0.042188491672 0.13807658851 0.18825440109
          0.10752455145 0.16135343909 0.26230570674 0.0026351101696 0.0052525661886 -0.086398035288
          -0.053940914571 0.11064826697 0.25277036428 0.20157746971 0.059630785137 0.19306991994
          0.18873432279 0.1295580864 0.037443697453 0.089278496802 0.071826003492 -0.012331879698
          -0.049112327397 0.31414788961 0.30977734923 -0.010157967918 -0.095941632986 -0.11637625098
          -0.17246365547 -0.14491222799 -0.15935502946 0.29140764475 0.33628454804 -0.037115447223
          0.068666495383 0.07252574712 -0.02112316899 -0.11336103827 0.11091075838 0.22864857316
          0.14366416633 0.16731336713 0.060816947371 0.0032473742031 0.22865723073 0.053178198636
          -0.059113066643 -0.12155068666 0.17242343724 -0.066664047539 -0.013532669283 -0.047589607537
          -0.018696341664 -0.054079059511 0.054374396801 0.078725591302 0.027635436505 0.095119573176
          0.015259820968 0.022874068469 0.042070265859 0.075154691935 0.028996678069 -0.019994271919
          -0.0049731992185 -0.060675766319 -0.075536437333 -0.14272512496 0.0089111924171 0.044023580849
          0.0012144033099 -0.071084544063 -0.072450049222 0.015776481479 -0.01587693952 0.053572155535
          -0.13877464831 0.095914103091 0.13316525519 0.11299396306 -0.16716375947 -0.054960869253
          -0.092941232026 -0.17683120072 0.033545352519 0.083725728095 0.014425217174 -0.097483612597
          -0.10288579017 0.038902644068 -0.0099070155993 0.097412347794 -0.205012694 0.15635201335
          0.21495993435 0.18461425602 -0.23498883843 -0.059342395514 -0.087632365525 -0.17786714435
          0.044208470732 0.0825920403 0.048408977687 -0.050968199968 -0.084743849933 0.091764800251
          0.0071088904515 0.12600503862 -0.17547169328 0.20077452064 0.23955282569 0.19755937159
          -0.22354963422 -0.016171406955 -0.045562129468 -0.12695685029 0.073014013469 0.10964854062
          0.0689663589 -0.020448889583 -0.046173442155 0.10195217282 0.03614731878 0.13539835811
          -0.12811729312 0.19518552721 0.2328055352 0.20353195071 -0.17157393694 0.048705928028
          0.026438131928 -0.020319018513 0.09524308145 0.12809324265 0.077991120517 0.01831930317
          0.021077124402 0.085476338863 0.070473246276 0.12167284638 -0.035388968885 0.14466349781
          0.18142259121 0.17654450238 -0.052267558873 0.10545343906 0.094509407878 0.10632993281
          0.085701465607 0.094282455742 0.066426277161 0.064886197448 0.084702260792 0.048994798213
          0.080524593592 0.068071343005 0.082486003637 0.046079125255 0.059622850269 0.077606834471
          0.097721226513 0.15599732101 0.15224544704 0.23096765578 0.065116770566 0.048720374703
          0.043776214123 0.0973360762 0.13289345801 0.0037200555671 0.080016374588 0.00076151126996
          0.18565823138 -0.06551028043 -0.084529154003 -0.043021623045 0.23771101236 0.16760024428
          0.16714137793 0.27490893006 0.047128599137 0.019014535472 0.011749128811 0.11010526866
          0.14344364405 -0.035424713045 0.063397243619 -0.049552295357 0.24016781151 -0.14651234448
          -0.17638376355 -0.11070022732 0.30162584782 0.19391661882 0.16251540184 0.27469953895