<VTKFile type="UnstructuredGrid" version="1.0" byte_order="LittleEndian" header_type="UInt64">
  <UnstructuredGrid>
    <Piece NumberOfPoints="791" NumberOfCells="973">
      <PointData>
        <DataArray type="Float32" Name="ux" format="ascii" RangeMin="-0.72502428293" RangeMax="1.027718544">
          -0.39109933376 -0.4121773839 -0.42054837942 -0.38679096103 -0.39120048285 -0.42103850842
          -0.4118347764 -0.39056387544 -0.40702816844 -0.39388483763 -0.38593611121 -0.40571135283
          -0.39037752151 -0.39358940721 -0.4079220891 -0.39535206556 -0.40921542048 -0.39561125636
          -0.43304181099 -0.40515613556 -0.43206882477 -0.43292155862 -0.43102940917 -0.43536779284
          -0.40743777156 -0.43371617794 -0.38341903687 -0.61863708496 -0.61522251368 -0.61346197128
          -0.55649775267 -0.55318075418 -0.55186313391 -0.6198566556 -0.5572655201 -0.62325263023
          -0.5604044795 -0.61535936594 -0.61075931787 -0.61287391186 -0.553121984 -0.54888314009
          -0.55090010166 -0.6139434576 -0.5518322587 -0.61662834883 -0.55429154634 -0.61974656582
          -0.55704462528 -0.60932433605 -0.54764169455 -0.61838406324 -0.55584001541 -0.62271642685
          -0.55969786644 -0.62480849028 -0.56161731482 -0.61007744074 -0.54860919714 -0.66810578108
          -0.66440242529 -0.6624648571 -0.66949421167 -0.67326766253 -0.66454404593 -0.65955990553
          -0.66188085079 -0.66293764114 -0.6659476757 -0.66931974888 -0.65808045864 -0.66775417328
          -0.67259413004 -0.67500185966 -0.65887647867 -0.70157027245 -0.69762790203 -0.69552689791
          -0.70309358835 -0.70713049173 -0.69772315025 -0.69239902496 -0.69492220879 -0.69594627619
          -0.69926351309 -0.70290261507 -0.69085419178 -0.7011551857 -0.70645570755 -0.70907300711
          -0.69169521332 -0.71681362391 -0.71247375011 -0.71013784409 -0.718495965 -0.72293490171
          -0.71261805296 -0.70676010847 -0.7095053792 -0.71067845821 -0.71430301666 -0.71830248833
          -0.70506584644 -0.71639841795 -0.72220873833 -0.72502428293 -0.70596462488 -0.71171373129
          -0.70681929588 -0.70428234339 -0.71354520321 -0.71847206354 -0.7069503665 -0.70027476549
          -0.70344686508 -0.70476782322 -0.70883238316 -0.71334642172 -0.69841188192 -0.71125966311
          -0.71772098541 -0.7208340168 -0.69952529669 -0.68538171053 -0.68012458086 -0.67745518684
          -0.68729764223 -0.69255322218 -0.68021643162 -0.67297756672 -0.67642378807 -0.67788302898
          -0.68226534128 -0.68709659576 -0.67094784975 -0.68495416641 -0.69186168909 -0.69511902332
          -0.67227476835 -0.63762706518 -0.63219136 -0.62955492735 -0.63955849409 -0.64491951466
          -0.63231766224 -0.6247510314 -0.62837356329 -0.62995648384 -0.63439559937 -0.6394187212
          -0.62267255783 -0.63730186224 -0.64435738325 -0.64757931232 -0.6241402626 -0.56992417574
          -0.56432706118 -0.56171262264 -0.57183539867 -0.57726883888 -0.5643838644 -0.55648142099
          -0.56029999256 -0.56195598841 -0.56653106213 -0.5717023015 -0.55436432362 -0.56962132454
          -0.57681643963 -0.58000934124 -0.55604726076 -0.48394989967 -0.47826680541 -0.47565022111
          -0.48587754369 -0.49138739705 -0.47836437821 -0.47024691105 -0.47416839004 -0.47588139772
          -0.48051702976 -0.48578193784 -0.46810117364 -0.48375052214 -0.49103188515 -0.49420389533
          -0.46989887953 -0.38049155474 -0.37482598424 -0.37225967646 -0.38240212202 -0.3878608346
          -0.37488558888 -0.36673113704 -0.3706920445 -0.37243309617 -0.37704542279 -0.38232403994
          -0.36460158229 -0.38034421206 -0.387586236 -0.39068207145 -0.36646512151 -0.26031029224
          -0.25476557016 -0.25229465961 -0.26210638881 -0.26740777493 -0.25483089685 -0.24690364301
          -0.2507262826 -0.25251695514 -0.25692212582 -0.26205486059 -0.24477377534 -0.26021167636
          -0.26717919111 -0.27011501789 -0.24661208689 -0.12541203201 -0.11984937638 -0.11745010316
          -0.12710668147 -0.13233868778 -0.11990362406 -0.11197310686 -0.11576933414 -0.11769146472
          -0.1219400987 -0.12704022229 -0.1097766459 -0.12532286346 -0.13213700056 -0.13498662412
          -0.11168731004 0.021115340292 0.026844562963 0.029135771096 0.019551262259 0.014285307378
          0.026787687093 0.034902121872 0.031043011695 0.028948841617 0.024760257453 0.019605452195
          0.037201479077 0.021197807044 0.014463611878 0.011687392369 0.035161457956 0.17644064128
          0.18226547539 0.18449181318 0.17494726181 0.16966579854 0.18213675916 0.19038197398
          0.18652160466 0.18420757353 0.18017350137 0.1749240756 0.19279560447 0.17635923624
          0.1697345823 0.1670896709 0.19063726068 0.33724153042 0.34291833639 0.34498137236
          0.33590087295 0.33086058497 0.34286546707 0.35089930892 0.34710901976 0.34486055374
          0.3409435451 0.33591747284 0.35324394703 0.33723947406 0.3309058249 0.32841539383
          0.35103979707 0.50125980377 0.50665235519 0.50858086348 0.50005072355 0.49526083469
          0.50663530827 0.51420283318 0.51063299179 0.50847792625 0.50480180979 0.50008076429
          0.51641958952 0.50133526325 0.49538600445 0.49300086498 0.51433002949 0.66815787554
          0.67334717512 0.67515587807 0.6670204401 0.66242498159 0.67337858677 0.68065738678
          0.67719292641 0.67516320944 0.67160463333 0.66705524921 0.68274891376 0.66827052832
          0.66251534224 0.66025519371 0.68072575331 0.8371334672 0.84231805801 0.84411370754
          0.8360067606 0.83143395185 0.84230345488 0.84959340096 0.84616327286 0.84405595064
          0.84056425095 0.83602958918 0.85172319412 0.83715456724 0.83149629831 0.8293119669
          0.84965616465 1.0071281195 1.0123329163 1.0140609741 1.0060470104 1.0015140772
          1.0123224258 1.0196447372 1.0161863565 1.0140622854 1.0105763674 1.0060523748
          1.0217943192 1.0071419477 1.0015296936 0.99937468767 1.0196640491 -0.45650207996
          -0.46630764008 -0.45345491171 -0.47373792529 -0.46828061342 -0.49073860049 -0.49047017097
          -0.47686091065 -0.50207334757 -0.47926369309 -0.48881721497 -0.47450706363 -0.50505387783
          -0.49833089113 -0.48431655765 -0.46026834846 -0.4533329308 -0.45678731799 -0.47344100475
          -0.43306303024 -0.44671976566 -0.47488850355 -0.46049451828 -0.55073773861 -0.55378514528
          -0.55473405123 -0.60734385252 -0.61168932915 -0.61254310608 -0.55037343502 -0.607239604
          -0.54797321558 -0.6038967967 -0.55345785618 -0.55748605728 -0.55595088005 -0.61161416769
          -0.61710137129 -0.6147736907 -0.55384647846 -0.61236691475 -0.55276882648 -0.61054497957
          -0.55028551817 -0.60732752085 -0.55933505297 -0.61925065517 -0.55026507378 -0.60751569271
          -0.54788690805 -0.60422158241 -0.54702824354 -0.60292696953 -0.55821734667 -0.6173838973
          -0.64960420132 -0.65470743179 -0.65586745739 -0.64945852757 -0.64547663927 -0.65458542109
          -0.66087412834 -0.65829712152 -0.65541911125 -0.65336382389 -0.64958381653 -0.66352504492
          -0.64985340834 -0.64599466324 -0.64437496662 -0.66150718927 -0.67504447699 -0.68071043491
          -0.68197798729 -0.67493319511 -0.67051804066 -0.68058145046 -0.68742746115 -0.68463373184
          -0.68146681786 -0.67921423912 -0.67512577772 -0.69034707546 -0.67548245192 -0.67126250267
          -0.66942328215 -0.6881942153 -0.68235296011 -0.68851518631 -0.68990910053 -0.68219363689
          -0.67735469341 -0.68835198879 -0.69584643841 -0.69277638197 -0.68935418129 -0.686868608
          -0.68236452341 -0.69896495342 -0.68278318644 -0.67814236879 -0.67610234022 -0.6966176033
          -0.67056554556 -0.6771709919 -0.67870545387 -0.6702593565 -0.66503888369 -0.67699813843
          -0.68513429165 -0.68175315857 -0.67819207907 -0.67534643412 -0.67044121027 -0.68842822313
          -0.67096620798 -0.66576498747 -0.66353559494 -0.68589138985 -0.64012664557 -0.64716863632
          -0.64893853664 -0.6396458149 -0.63399153948 -0.64699739218 -0.65585303307 -0.65211457014
          -0.64839309454 -0.64516061544 -0.63981580734 -0.65932279825 -0.64050877094 -0.63472229242
          -0.63225078583 -0.65660524368 -0.59282892942 -0.6004460454 -0.60245066881 -0.59216636419
          -0.58600080013 -0.60025835037 -0.60996538401 -0.60580807924 -0.60190320015 -0.59822356701
          -0.59236395359 -0.61366045475 -0.59321826696 -0.58674502373 -0.58399385214 -0.61076366901
          -0.53000169992 -0.53833627701 -0.54059422016 -0.52921116352 -0.52237480879 -0.53815597296
          -0.54886013269 -0.54426598549 -0.54002887011 -0.53588461876 -0.52939498425 -0.55290997028
          -0.53036361933 -0.52310538292 -0.52005362511 -0.54968863726 -0.45114117861 -0.46006464958
          -0.46248731017 -0.45025038719 -0.44296467304 -0.45988914371 -0.47138416767 -0.46641120315
          -0.46189022064 -0.45741760731 -0.45041573048 -0.47568815947 -0.45145985484 -0.44362184405
          -0.44040426612 -0.47222205997 -0.35518997908 -0.36449053884 -0.36708468199 -0.35416314006
          -0.34649565816 -0.36426278949 -0.3763487339 -0.37112638354 -0.36643180251 -0.36168816686
          -0.35429677367 -0.3808029294 -0.35542306304 -0.34711030126 -0.34373247623 -0.37720143795
          -0.24230475724 -0.25212877989 -0.25499138236 -0.2410518527 -0.23289124668 -0.25190910697
          -0.26488593221 -0.25919690728 -0.25434848666 -0.24911342561 -0.24117334187 -0.26952937245
          -0.24250020087 -0.23344810307 -0.22979399562 -0.26568359137 -0.11474350095 -0.12514173985
          -0.12824463844 -0.11324625462 -0.1045184955 -0.12497717887 -0.13897840679 -0.13269981742
          -0.12776623666 -0.12187906355 -0.11331861466 -0.14371791482 -0.11486830562 -0.1049188301
          -0.10098579526 -0.13955019414 0.02511142008 0.014216717333 0.010948634706 0.026808714494
          0.036016143858 0.014318985865 -0.0005644071498 0.006227883976 0.01120916754 0.017650073394
          0.026766994968 -0.0053544221446 0.02504452318 0.035792149603 0.039935465902 -0.00089059345191
          0.17530338466 0.16405160725 0.16063126922 0.17720010877 0.18675430119 0.16410234571
          0.14847554266 0.15572187304 0.16072356701 0.16764965653 0.17719055712 0.14365127683
          0.17528821528 0.1866863966 0.19098819792 0.14837475121 0.33402043581 0.32236263156
          0.31874269247 0.33614444733 0.34613603354 0.32234701514 0.30597144365 0.31364881992
          0.31868577003 0.32612234354 0.3361531198 0.30105128884 0.33405801654 0.34620663524
          0.35074469447 0.30604419112 0.49928793311 0.48714920878 0.48326781392 0.50164604187
          0.51210719347 0.48714834452 0.46999362111 0.47807025909 0.48322954774 0.49112170935
          0.50167614222 0.46494403481 0.49938395619 0.51220715046 0.51703387499 0.47008746862
          0.66836631298 0.65599232912 0.65194696188 0.67086201906 0.68160331249 0.65599620342
          0.63851296902 0.64676386118 0.65192645788 0.66010558605 0.67087286711 0.63339418173
          0.66841489077 0.6816637516 0.68667584658 0.63856369257 0.83885806799 0.82658821344
          0.82249939442 0.84136652946 0.8520655036 0.82658654451 0.80921494961 0.81742072105
          0.82249116898 0.83068448305 0.84138172865 0.80414575338 0.8388697505 0.85207051039
          0.85711592436 0.80923372507 1.0093870163 0.99706101418 0.99295204878 1.0119166374
          1.0226657391 0.99707639217 0.97969657183 0.98789733648 0.99297887087 1.0011686087
          1.0119236708 0.97462916374 1.0093873739 1.0226501226 1.027718544 0.97968173027
          -0.45493197441 -0.46809831262 -0.45647236705 -0.47125136852 -0.46285751462 -0.49216982722
          -0.49689090252 -0.48112854362 -0.5044413805 -0.4797424078 -0.48610442877 -0.48260340095
          -0.50270831585 -0.49240711331 -0.47724080086 -0.46702736616 -0.45370700955 -0.45852765441
          -0.47428521514 -0.43318787217 -0.44613602757 -0.4744129777 -0.45901271701 -0.28739482164
          -0.28743857145 -0.2874134481 -0.28754264116 -0.28748467565 -0.28744831681 -0.28762692213
          -0.28785583377 -0.28781470656 -0.28815814853 -0.2879845202 -0.28826951981 -0.28766652942
          -0.19377651811 -0.19356228411 -0.19368439913 -0.19427229464 -0.19377480447 -0.19424423575
          -0.19382932782 -0.19440189004 -0.19381295145 -0.1939689517 -0.19368906319 -0.19369859993
          -0.19417800009 -0.1118119508 -0.11132900417 -0.11141699553 -0.11258836836 -0.11178229749
          -0.11274773628 -0.11199402809 -0.11306389421 -0.11207936704 -0.11247351021 -0.11193047464
          -0.11207798123 -0.11272724718 -0.049719661474 -0.049095146358 -0.04907907173 -0.050458557904
          -0.049489770085 -0.05070624128 -0.049644079059 -0.050993580371 -0.049669221044 -0.0501742661
          -0.049346774817 -0.049536205828 -0.050441976637 -0.012669431977 -0.011687356047 -0.011427583173
          -0.01330780983 -0.011948370375 -0.013861739077 -0.012011440471 -0.014031025581 -0.011916231364
          -0.012701665051 -0.011219367385 -0.011560103856 -0.01311239507 0 0
          0 0 0 0 0 0
          0 0 0 0 0
        </DataArray>
        <DataArray type="Float32" Name="uy" format="ascii" RangeMin="-0.35741329193" RangeMax="0.48654359579">
          -0.18529717624 -0.19528049231 -0.19889469445 -0.1843585372 -0.18754273653 -0.20112730563
          -0.19727562368 -0.18540403247 -0.19330564141 -0.18746940792 -0.18430820107 -0.19485910237
          -0.18734483421 -0.18862310052 -0.19278414547 -0.18737696111 -0.1954690963 -0.18889117241
          -0.20503392816 -0.19332373142 -0.20669770241 -0.20516897738 -0.20673039556 -0.20707419515
          -0.19343264401 -0.20495265722 -0.18300540745 -0.30006897449 -0.29585710168 -0.2994222343
          -0.27606463432 -0.27223572135 -0.2756588161 -0.29460349679 -0.27104175091 -0.29713001847
          -0.2733809948 -0.2887223959 -0.28805619478 -0.292111516 -0.2656905055 -0.26497787237
          -0.26881793141 -0.28545600176 -0.26265639067 -0.29222869873 -0.26889047027 -0.2898246944
          -0.26674225926 -0.29181605577 -0.26857534051 -0.28484910727 -0.26222926378 -0.28711628914
          -0.26436042786 -0.29193347692 -0.26870396733 -0.29607227445 -0.27264374495 -0.31670981646
          -0.31197082996 -0.31593614817 -0.31059023738 -0.31345748901 -0.30404624343 -0.3033875227
          -0.30783733726 -0.30046573281 -0.30792334676 -0.30520141125 -0.30753284693 -0.29967886209
          -0.30209806561 -0.30750894547 -0.3121945858 -0.32480952144 -0.31969413161 -0.32388731837
          -0.3182798028 -0.32140883803 -0.3112064302 -0.31051102281 -0.31524541974 -0.30737286806
          -0.31539282203 -0.31246003509 -0.3148880899 -0.30646333098 -0.3091147542 -0.31502601504
          -0.31985259056 -0.32439285517 -0.31876456738 -0.32335874438 -0.31726390123 -0.3206911087
          -0.30956241488 -0.30881309509 -0.31393140554 -0.30538076162 -0.3141078651 -0.3109305203
          -0.31355395913 -0.30439701676 -0.30729535222 -0.31374236941 -0.31892839074 -0.31473594904
          -0.30855032802 -0.31367015839 -0.30680763721 -0.31059896946 -0.29820939898 -0.29738548398
          -0.30317783356 -0.29346704483 -0.3033054769 -0.2997688055 -0.30282506347 -0.29240423441
          -0.29570871592 -0.30290576816 -0.30882284045 -0.29535585642 -0.28873610497 -0.29428827763
          -0.28684815764 -0.2909270823 -0.27751585841 -0.2766058743 -0.28291779757 -0.272349298
          -0.28305831552 -0.27926900983 -0.28259414434 -0.27131178975 -0.27498176694 -0.28273111582
          -0.28915417194 -0.2669121325 -0.26018592715 -0.26592823863 -0.25820052624 -0.26239767671
          -0.24857166409 -0.24762411416 -0.25421056151 -0.24315358698 -0.25431597233 -0.25041878223
          -0.25394573808 -0.2421823442 -0.24607057869 -0.25404220819 -0.26072624326 -0.23142652214
          -0.2246427387 -0.23053537309 -0.22257864475 -0.22682900727 -0.21270267665 -0.21171920002
          -0.21855948865 -0.20704881847 -0.21861612797 -0.21463996172 -0.21835719049 -0.20613238215
          -0.21026331186 -0.2183971554 -0.22532998025 -0.19062663615 -0.18378132582 -0.18977612257
          -0.18162335455 -0.18593682349 -0.17155776918 -0.17057038844 -0.17758741975 -0.16576620936
          -0.17761129141 -0.17354540527 -0.17746695876 -0.16488432884 -0.16912700236 -0.17739532888
          -0.18459047377 -0.14582492411 -0.13904905319 -0.14502592385 -0.13691864908 -0.14119458199
          -0.1268581748 -0.12584219873 -0.13289691508 -0.12102036923 -0.132935673 -0.12889146805
          -0.13276682794 -0.12020678818 -0.12452563643 -0.13275104761 -0.13988286257 -0.097060889006
          -0.090513534844 -0.096336051822 -0.088446646929 -0.092546738684 -0.078671328723 -0.077621750534
          -0.084520891309 -0.07296667248 -0.084563016891 -0.080680124462 -0.084377095103 -0.072258330882
          -0.076493300498 -0.084420628846 -0.091329604387 -0.044906675816 -0.038460608572 -0.044284012169
          -0.036384221166 -0.04041095823 -0.026619184762 -0.025473766029 -0.032472316176 -0.020888861269
          -0.032527260482 -0.028696533293 -0.032312791795 -0.020326381549 -0.024605369195 -0.032437104732
          -0.039355807006 0.010013928637 0.01642552577 0.010482491925 0.018594976515 0.014591359533
          0.028470017016 0.029733926058 0.022536652163 0.034339692444 0.022456780076 0.026299884543
          0.022647187114 0.034740000963 0.030313542113 0.022507250309 0.01538299676 0.067719914019
          0.074091546237 0.068017803133 0.076338261366 0.072392620146 0.086252607405 0.087587580085
          0.080227017403 0.092227116227 0.080191046 0.084028661251 0.080319814384 0.092473529279
          0.087971799076 0.080250009894 0.072907552123 0.12782892585 0.13386684656 0.12801107764
          0.13607288897 0.13233110309 0.14563776553 0.14698795974 0.13978695869 0.15146048367
          0.13975279033 0.14342533052 0.13986617327 0.15160405636 0.14717422426 0.13978619874
          0.13263905048 0.18934349716 0.19503174722 0.18947835267 0.19711580873 0.1936121732
          0.20614416897 0.20742408931 0.20062537491 0.21165141463 0.20059670508 0.20406681299
          0.2006599009 0.2117664963 0.20760442317 0.20063759387 0.19383522868 0.25185734034
          0.25729504228 0.25198057294 0.25928339362 0.25592893362 0.26796859503 0.2692091465
          0.26266494393 0.27328157425 0.26261585951 0.2659625113 0.26273450255 0.2733874917
          0.26936802268 0.26265564561 0.25616812706 0.31551128626 0.32089269161 0.31557393074
          0.32290670276 0.31961983442 0.33149537444 0.33273366094 0.32620477676 0.33678245544
          0.32619830966 0.329498142 0.32622796297 0.33683741093 0.33282145858 0.32624363899
          0.31968137622 0.3798507452 0.385194242 0.37986168265 0.38723030686 0.38392165303
          0.3958132565 0.39705148339 0.39050850272 0.40111756325 0.39050471783 0.39380463958
          0.39052054286 0.40112817287 0.3970900178 0.39051502943 0.38395473361 -0.22746489942
          -0.23046152294 -0.22710289061 -0.23188380897 -0.23003846407 -0.23731437325 -0.2381965816
          -0.23382751644 -0.24085016549 -0.23385694623 -0.23591808975 -0.23372893035 -0.24058173597
          -0.23783604801 -0.23391160369 -0.22940991819 -0.21601301432 -0.21838669479 -0.22526232898
          -0.20678058267 -0.21257400513 -0.22511047125 -0.21827527881 -0.27069544792 -0.26788654923
          -0.271176368 -0.30206796527 -0.29857203364 -0.30277127028 -0.26656329632 -0.29679384828
          -0.26811775565 -0.29870226979 -0.26189535856 -0.26075255871 -0.2647690475 -0.29060289264
          -0.28903368115 -0.29448214173 -0.25890934467 -0.28649672866 -0.26483806968 -0.29456597567
          -0.26320031285 -0.29232221842 -0.26469644904 -0.29430028796 -0.25951609015 -0.28728687763
          -0.26174229383 -0.29033246636 -0.26480680704 -0.29438841343 -0.26886472106 -0.29981434345
          -0.32867470384 -0.32449790835 -0.32946911454 -0.32240584493 -0.32463717461 -0.3151614666
          -0.31332036853 -0.31966432929 -0.31045123935 -0.31977337599 -0.31716278195 -0.3193692863
          -0.31129616499 -0.31471928954 -0.31949532032 -0.32587224245 -0.3473367393 -0.34277155995
          -0.34823229909 -0.34044846892 -0.34283408523 -0.33262297511 -0.33057668805 -0.33749493957
          -0.32752540708 -0.33761039376 -0.33473831415 -0.33714345098 -0.32842636108 -0.33210381866
          -0.33721232414 -0.34425425529 -0.35646536946 -0.35144817829 -0.35741329193 -0.3488997817
          -0.35154691339 -0.34035757184 -0.33820164204 -0.34572777152 -0.33476081491 -0.34582775831
          -0.34261220694 -0.34538844228 -0.33566835523 -0.33966386318 -0.34532272816 -0.35308763385
          -0.35585987568 -0.35035616159 -0.35677972436 -0.34764289856 -0.35059988499 -0.33831587434
          -0.33605995774 -0.34415712953 -0.33224800229 -0.34426254034 -0.34074980021 -0.34382483363
          -0.33312612772 -0.33750218153 -0.34376102686 -0.35210362077 -0.34563976526 -0.33957961202
          -0.34649038315 -0.33668619394 -0.34000891447 -0.32654088736 -0.32421830297 -0.33288195729
          -0.31998625398 -0.33298543096 -0.32913485169 -0.33255809546 -0.32080215216 -0.32553514838
          -0.3324842155 -0.34140911698 -0.32622155547 -0.31949180365 -0.32703095675 -0.31637632847
          -0.3201354444 -0.30518555641 -0.30274555087 -0.3121445179 -0.29805973172 -0.31225922704
          -0.30803823471 -0.31180232763 -0.29883792996 -0.30404269695 -0.31180641055 -0.32141721249
          -0.29775756598 -0.29022234678 -0.29854419827 -0.28684973717 -0.29110699892 -0.27432650328
          -0.27166000009 -0.28204882145 -0.26641923189 -0.28221061826 -0.27750816941 -0.28167891502
          -0.26723897457 -0.27303433418 -0.28179362416 -0.292314291 -0.25912371278 -0.2510407567
          -0.25992512703 -0.24747432768 -0.25203183293 -0.23403538764 -0.23116619885 -0.24229106307
          -0.22551004589 -0.24247843027 -0.23747801781 -0.24189072847 -0.22639550269 -0.23269924521
          -0.24211704731 -0.25325196981 -0.21065428853 -0.20211680233 -0.21141114831 -0.19838705659
          -0.20325745642 -0.18426445127 -0.1813287884 -0.19295565784 -0.17532381415 -0.19312274456
          -0.18785229325 -0.1925856024 -0.17618575692 -0.18280906975 -0.19278515875 -0.20443737507
          -0.15339827538 -0.14420476556 -0.15409019589 -0.14027871192 -0.1456117332 -0.12513720989
          -0.12213405222 -0.13444238901 -0.115597561 -0.13461360335 -0.12895028293 -0.13411492109
          -0.11638445407 -0.1234998107 -0.13432238996 -0.14664445817 -0.087968073785 -0.07806365937
          -0.088564172387 -0.07390127331 -0.079735398293 -0.057567518204 -0.054540984333 -0.067686013877
          -0.047294836491 -0.0677665025 -0.061632100493 -0.067418932915 -0.047946851701 -0.055648919195
          -0.067513778806 -0.080671980977 -0.015952710062 -0.0054352791049 -0.016453482211 -0.0010977846105
          -0.0073991292156 0.016223262995 0.019203213975 0.0054718432948 0.027087703347 0.0054185301997
          0.011974522844 0.0056011746638 0.026590807363 0.018359895796 0.0055904909968 -0.0082185370848
          0.059785105288 0.070804595947 0.059347167611 0.0752710253 0.068586409092 0.093448206782
          0.096425458789 0.082153186202 0.10485139489 0.082137256861 0.089003071189 0.082185462117
          0.10439939797 0.095703288913 0.082178346813 0.067888818681 0.13622628152 0.14784194529
          0.13591174781 0.15245591104 0.14533543587 0.17160761356 0.17460545897 0.15970426798
          0.18358062208 0.15970902145 0.16697762907 0.15967866778 0.18327836692 0.17410460114
          0.15969410539 0.14480859041 0.21196912229 0.22420598567 0.21176694334 0.22899496555
          0.2214384377 0.24899062514 0.25200241804 0.2365629673 0.26145210862 0.23659035563
          0.24419936538 0.23652108014 0.26126331091 0.25171250105 0.23656336963 0.22111660242
          0.28677603602 0.2993748188 0.28669604659 0.30422219634 0.29642859101 0.32470953465
          0.32773017883 0.3120200634 0.33740723133 0.31203135848 0.3198339045 0.31200525165
          0.33731919527 0.32759001851 0.31199473143 0.29630726576 0.36155360937 0.37415221334
          0.3615309 0.37897613645 0.37120166421 0.39940312505 0.40238019824 0.3867598176
          0.41202941537 0.38679081202 0.3945761919 0.38676199317 0.41200980544 0.40235981345
          0.38677996397 0.37114495039 0.43611040711 0.44872334599 0.43611124158 0.453553617
          0.44575932622 0.47392600775 0.47688731551 0.46131080389 0.48653575778 0.46133780479
          0.4691285491 0.46130615473 0.48654359579 0.47691771388 0.46134904027 0.44574022293
          -0.21854144335 -0.22338786721 -0.21892870963 -0.22497247159 -0.22192928195 -0.23234415054
          -0.23322251439 -0.22789023817 -0.23671253026 -0.22787980735 -0.2307485491 -0.22798421979
          -0.23712289333 -0.23382073641 -0.22787474096 -0.22259327769 -0.21441493928 -0.21675239503
          -0.22382736206 -0.20490510762 -0.21080587804 -0.22395054996 -0.21687360108 -0.14112493396
          -0.14094464481 -0.14078357816 -0.14067782462 -0.14099776745 -0.14128617942 -0.14103388786
          -0.14076045156 -0.14109127223 -0.14094774425 -0.14131101966 -0.14115077257 -0.14133533835
          -0.099794104695 -0.099397845566 -0.098946496844 -0.099012300372 -0.099360235035 -0.09962977469
          -0.099395036697 -0.099512070417 -0.099453136325 -0.099875368178 -0.099274121225 -0.099643066525
          -0.099285148084 -0.062002010643 -0.061299804598 -0.060350008309 -0.060285646468 -0.061104007065
          -0.061665408313 -0.061106480658 -0.061141841114 -0.061184823513 -0.061822324991 -0.060905944556
          -0.061499997973 -0.060945875943 -0.030438274145 -0.029694961384 -0.028637705371 -0.028494341299
          -0.029357664287 -0.029791126028 -0.029298562557 -0.029491525143 -0.029401173815 -0.030317695811
          -0.028929609805 -0.029818689451 -0.028865091503 -0.0095064118505 -0.0087183397263 -0.0072618690319
          -0.0070293792523 -0.0080112917349 -0.008285981603 -0.0079116830602 -0.0085040135309 -0.0080981310457
          -0.0097866738215 -0.0073351408355 -0.0089503899217 -0.0069586466998 0 0
          0 0 0 0 0 0
          0 0 0 0 0
        </DataArray>
        <DataArray type="Float32" Name="uz" format="ascii" RangeMin="-0.23905934393" RangeMax="0.22393494844">
          -0.048601526767 -0.036250215024 -0.045938871801 -0.010295599699 0.030699169263 0.022676922381
          0.036474522203 -0.036939881742 -0.021856287494 -0.012347702868 0.0042903479189 0.052720300853
          0.042450066656 0.036860454828 -0.059104245156 -0.042959634215 0.015509551391 0.0062238462269
          -0.023929594085 0.015785055235 0.038297604769 -0.013547762297 0.04875793308 0.0071866563521
          -0.021980963647 -0.055058345199 -0.002980385907 0.15052947402 0.14071363211 0.15735574067
          0.15535718203 0.14421446621 0.16435466707 0.12888939679 0.12939396501 0.13366408646
          0.13452754915 0.11096513271 0.11457549781 0.12963394821 0.10886352509 0.11432165653
          0.13161845505 0.097676128149 0.093225263059 0.12414000928 0.12431094795 0.11052302271
          0.10746765137 0.1351326555 0.13907139003 0.09093748033 0.084043547511 0.096836619079
          0.090352624655 0.11316207796 0.10973823071 0.15146134794 0.15808194876 0.14408819377
          0.13603550196 0.14814969897 0.1281761378 0.13238506019 0.11399626732 0.11561117321
          0.12725465 0.10391416401 0.12401456386 0.11457716674 0.13053061068 0.099931649864
          0.10511290282 0.11750410497 0.142954126 0.13632163405 0.13062472641 0.1373860985
          0.1272226274 0.13051195443 0.11774501204 0.11732564867 0.12478194386 0.11150792986
          0.12393770367 0.11926797032 0.12563000619 0.11044351757 0.11452034116 0.1221928224
          0.13328017294 0.12738378346 0.12448589504 0.12526598573 0.12590846419 0.12809428573
          0.12188734859 0.11936833709 0.122008048 0.1200447306 0.12371299416 0.12429466844
          0.12032491714 0.12213293463 0.12484970689 0.12712571025 0.1225560233 0.11768494546
          0.1178817898 0.11227340996 0.12437905371 0.12530012429 0.12636214495 0.12168258429
          0.11911772937 0.12929357588 0.12347092479 0.12962523103 0.11474953592 0.13468965888
          0.13579984009 0.1322170943 0.11116462946 0.1077132225 0.11129201949 0.099200926721
          0.12275531888 0.12217833102 0.13112261891 0.12443093956 0.11645183712 0.13892658055
          0.12332995981 0.13501597941 0.10953567177 0.14745217562 0.14676211774 0.13709449768
          0.099915631115 0.097856707871 0.10494787246 0.086658068001 0.12090540677 0.11868007481
          0.13576297462 0.12758472562 0.11410778016 0.14844875038 0.12314078212 0.1399667412
          0.10503570735 0.15964329243 0.15688583255 0.14122214913 0.089414574206 0.088596314192
          0.09919257462 0.075284950435 0.11903133243 0.11504989862 0.14022235572 0.13098797202
          0.11228010058 0.15746459365 0.12302192301 0.14439460635 0.1014817059 0.1707816273
          0.16587524116 0.14455746114 0.080212809145 0.07983443886 0.094000197947 0.064934432507
          0.11713021994 0.11123900861 0.14461264014 0.13484026492 0.11099546403 0.16623540223
          0.12302706391 0.14839917421 0.098925277591 0.1810951829 0.17379257083 0.14711767435
          0.0722354725 0.071353800595 0.089114904404 0.055166594684 0.11516622454 0.10726539791
          0.14884632826 0.13881534338 0.1099409461 0.17471523583 0.12303660065 0.15206491947
          0.096863627434 0.19086740911 0.18112562597 0.14919997752 0.064908444881 0.063476592302
          0.084531903267 0.04601797089 0.11328043044 0.10358583182 0.15264049172 0.1422778666
          0.10885126144 0.18240612745 0.12292901427 0.15535798669 0.09473605454 0.19980432093
          0.18787150085 0.15109990537 0.057958904654 0.056731197983 0.080481998622 0.038124617189
          0.11163622141 0.10050669312 0.15571644902 0.1449957788 0.10774178058 0.18878906965
          0.12274460495 0.15813699365 0.092708490789 0.20734962821 0.19361025095 0.15278330445