<VTKFile type="UnstructuredGrid" version="1.0" byte_order="LittleEndian" header_type="UInt64">
  <UnstructuredGrid>
    <Piece NumberOfPoints="791" NumberOfCells="973">
      <PointData>
        <DataArray type="Float32" Name="ux" format="ascii" RangeMin="-1.4622924328" RangeMax="1.1531888247">
          -0.084531851113 -0.1615754962 -0.012294047512 -0.06618027389 -0.064139083028 -0.0076266359538
          -0.15301677585 -0.20949393511 -0.35714814067 -0.30477699637 -0.21759180725 -0.33599147201
          -0.19118438661 -0.29980358481 0.095624767244 0.029427174479 0.1034367606 0.038348324597
          -0.2296577543 -0.3466322124 -0.22706240416 -0.360470891 -0.35260656476 0.1487596333
          0.094262138009 0.16272607446 -0.1438037008 -0.011749856174 -0.056300360709 -0.070326954126
          -0.014973327518 -0.098261617124 -0.12162639201 -0.00097186118364 0.0030105898622 0.035369887948
          0.072400711477 -0.056117158383 -0.12009108067 -0.088984653354 -0.10065019876 -0.21501632035
          -0.15914466977 -0.072454556823 -0.13019190729 -0.039952620864 -0.070428609848 -0.0012306782883
          0.0014333805302 -0.13780999184 -0.24560035765 -0.0074985399842 -0.016413193196 0.039519406855
          0.074113786221 0.056355152279 0.10902637988 -0.11785680056 -0.21072590351 -0.047245729715
          -0.055505886674 -0.059412766248 -0.042790085077 -0.039972543716 -0.053636778146 -0.076112620533
          -0.065337240696 -0.056747924536 -0.05024440214 -0.037331853062 -0.080164946616 -0.036061860621
          -0.028325678781 -0.031234540045 -0.074258819222 -0.074394442141 -0.055719338357 -0.051789458841
          -0.076878175139 -0.092492640018 -0.057037219405 -0.037448123097 -0.046464201063 -0.051912434399
          -0.061081975698 -0.071176171303 -0.031323481351 -0.064191304147 -0.080452419817 -0.094485588372
          -0.033204220235 -0.082393117249 -0.039227958769 -0.027787705883 -0.086600281298 -0.12557791173
          -0.036238949746 0.013546294533 -0.0098783969879 -0.02229245007 -0.049543846399 -0.081686019897
          0.028917005286 -0.06936981529 -0.11288394034 -0.13587601483 0.013706107624 -0.11360482126
          -0.038455475122 -0.016265170649 -0.12074866146 -0.18300437927 -0.032430827618 0.064154483378
          0.01837246865 -0.00913918484 -0.057799726725 -0.11481016129 0.09432015568 -0.096278510988
          -0.16894549131 -0.20331293344 0.067353025079 -0.10756549984 -0.0107517289 0.021072084084
          -0.12556225061 -0.2090818733 -0.011294631287 0.11594991386 0.058569718152 0.018756924197
          -0.042331628501 -0.12281219661 0.15790560842 -0.10228015482 -0.20184136927 -0.24465255439
          0.1213003546 -0.095567174256 -0.00051476794761 0.033801663667 -0.11936873943 -0.20490255952
          -0.0072820940986 0.13294510543 0.068346239626 0.024019695818 -0.035402953625 -0.12183550745
          0.17719751596 -0.10441349447 -0.20842650533 -0.24808226526 0.1381329 -0.11060251296
          0.0030264048837 0.045944068581 -0.13910441101 -0.24096381664 -0.004409655463 0.16550180316
          0.08773265034 0.035537529737 -0.036979570985 -0.14265654981 0.21559421718 -0.12084814161
          -0.24426010251 -0.29133504629 0.16767521203 -0.14885531366 0.0010563592659 0.049505360425
          -0.17922282219 -0.30905309319 0.0018250027206 0.21189437807 0.11084136367 0.052569016814
          -0.048027832061 -0.17769671977 0.27017983794 -0.14380007982 -0.30369755626 -0.36744645238
          0.20929640532 -0.1345243305 0.036282483488 0.091059796512 -0.16821065545 -0.31769323349
          0.038305643946 0.27890142798 0.16377067566 0.096843600273 -0.020679585636 -0.16756016016
          0.34686896205 -0.12926578522 -0.31360012293 -0.3840752244 0.27411675453 -0.11838463694
          0.070411227643 0.13278225064 -0.15664768219 -0.322932899 0.073886975646 0.34303408861
          0.2125698477 0.13845901191 0.0066538145766 -0.15722091496 0.41665831208 -0.11794894189
          -0.32595875859 -0.40161591768 0.33594924212 -0.099360100925 0.11481171846 0.18504020572
          -0.1444915235 -0.33228388429 0.11827347428 0.43179020286 0.27850228548 0.19557961822
          0.045272409916 -0.14530320466 0.51771879196 -0.10086476803 -0.33920919895 -0.42610397935
          0.42014610767 -0.068063393235 0.16580088437 0.24479474127 -0.11879903823 -0.32443764806
          0.16224259138 0.5034122467 0.34260851145 0.24024577439 0.086012817919 -0.12191157788
          0.60313612223 -0.076528169215 -0.33100819588 -0.4273211658 0.50176674128 -0.057843189687
          0.19024074078 0.27374798059 -0.10786667466 -0.32518711686 0.18724896014 0.53459119797
          0.37303468585 0.26775708795 0.1080609411 -0.10771656036 0.64126032591 -0.057981792837
          -0.3214994967 -0.42397201061 0.54014027119 -0.052237376571 0.19103173912 0.26748540998
          -0.095777481794 -0.30693751574 0.19269242883 0.52393239737 0.36927774549 0.27070111036
          0.11132453382 -0.090516023338 0.62670779228 -0.039366610348 -0.29366722703 -0.39727985859
          0.52797460556 -0.10959046334 0.1216577962 0.20041875541 -0.15621773899 -0.35681465268
          0.11919018626 0.44413736463 0.29278218746 0.19406236708 0.044415328652 -0.15607902408
          0.54081708193 -0.10718918592 -0.35248985887 -0.44684550166 0.44706305861 -0.18796890974
          0.040149383247 0.11533262581 -0.23384386301 -0.43109717965 0.043577320874 0.36133420467
          0.2109003365 0.12020976096 -0.033719629049 -0.2295588851 0.45416861773 -0.18167462945
          -0.42850446701 -0.52385437489 0.36040979624 -0.25444740057 -0.020760627463 0.057683899999
          -0.30091765523 -0.50275921822 -0.01802373305 0.31191846728 0.15461282432 0.063547879457
          -0.096612907946 -0.29923206568 0.40597546101 -0.24829548597 -0.50105452538 -0.59830665588
          0.30841484666 -0.30030870438 -0.072328202426 0.007115080487 -0.35027211905 -0.5499933362
          -0.076778255403 0.25056743622 0.097936451435 0.00054308533436 -0.15147681534 -0.35348010063
          0.34593841434 -0.30830430984 -0.55434519053 -0.64715635777 0.25206631422 -0.009971447289
          -0.13703398407 -0.18100093305 0.014273998328 0.12174572051 -0.13103938103 -0.29705777764
          -0.22577479482 -0.16725021601 -0.093518294394 0.010736401193 -0.35726821423 -0.012183050625
          0.11523279548 0.16646499932 -0.31536483765 -0.12787312269 -0.29008623958 -0.15258172154
          -0.10076610744 0.0085160871968 0.0019393223338 0.11581285298 0.2635153234 0.12412119657
          0.073299914598 0.3991355896 0.3065007627 0.26983296871 0.29521098733 0.42554748058
          0.42146104574 0.50799286366 0.13029707968 -0.064982973039 0.022117333487 0.31644549966
          0.189390257 0.24325147271 0.088160060346 0.28734102845 0.17319734395 0.34299072623
          0.29529237747 0.42714494467 -0.1281709671 0.1440103054 0.27025687695 0.40841543674
          0.42014339566 0.51016432047 0.4785849452 0.54930329323 -0.077747479081 0.17267242074
          0.47780686617 0.44766500592 0.43012171984 0.49052718282 0.51820886135 0.45330384374
          0.41305249929 0.42795190215 0.44331771135 0.46239078045 0.49039378762 0.39805743098
          0.48198130727 0.51674199104 0.53226262331 0.40196946263 0.49951809645 0.50898742676
          0.50504040718 0.50026071072 0.49749866128 0.5103803277 0.53334480524 0.52099823952
          0.51461350918 0.50716972351 0.49726441503 0.5346583724 0.49271634221 0.48627266288
          0.49251160026 0.52116626501 0.37683987617 0.41776308417 0.42576816678 0.37343689799
          0.34359687567 0.41993004084 0.48188042641 0.45027524233 0.43047991395 0.40585359931
          0.37197300792 0.49821123481 0.37351214886 0.33810389042 0.32678219676 0.472184062
          0.10839835554 0.18093253672 0.19990615547 0.10018638521 0.039038967341 0.18648782372
          0.28836089373 0.23706555367 0.21155944467 0.15979778767 0.10408858955 0.31807553768
          0.11969789863 0.04594797641 0.01316122245 0.28348809481 -0.19254663587 -0.084258802235
          -0.048487972468 -0.21327778697 -0.31027442217 -0.080660767853 0.065823279321 -0.0044861715287
          -0.041922830045 -0.11762615293 -0.20857432485 0.10760467499 -0.18036463857 -0.29777038097
          -0.34867954254 0.065694488585 -0.43603748083 -0.30971971154 -0.26946392655 -0.45770087838
          -0.56876337528 -0.31177380681 -0.15211351216 -0.22537234426 -0.27285927534 -0.35056611896
          -0.4529067874 -0.10084438324 -0.42281246185 -0.55053019524 -0.60999852419 -0.14282932878
          -0.61017686129 -0.47315746546 -0.42660930753 -0.63547825813 -0.75712996721 -0.47208482027
          -0.29984897375 -0.38065627217 -0.42865797877 -0.51690548658 -0.62794810534 -0.24601179361
          -0.59051537514 -0.73397821188 -0.80101424456 -0.28874069452 -0.68820458651 -0.55776613951
          -0.51064276695 -0.71476942301 -0.83353918791 -0.55265617371 -0.38225963712 -0.4644831121
          -0.506770432 -0.60123878717 -0.70747667551 -0.32993742824 -0.66753435135 -0.81190931797
          -0.88100999594 -0.37522432208 -0.56954801083 -0.45175668597 -0.40756267309 -0.59710866213
          -0.7061958909 -0.44691896439 -0.28662866354 -0.36483103037 -0.40224677324 -0.48887747526
          -0.59103500843 -0.24241375923 -0.55664002895 -0.6949134469 -0.7534108758 -0.28584343195
          -0.28637784719 -0.16922646761 -0.13217718899 -0.3119790554 -0.41618749499 -0.16549225152
          0.0024809367023 -0.080516241491 -0.121328637 -0.20916905999 -0.30980277061 0.046480320394
          -0.28031897545 -0.41338986158 -0.4652158618 -0.0048576877452 0.048766028136 0.20390628278
          0.2498729378 0.020088037476 -0.11029437184 0.20569375157 0.43450555205 0.32291376591
          0.26017487049 0.15214818716 0.018339509144 0.49458521605 0.047654587775 -0.11615054309
          -0.17232854664 0.42091989517 0.31354525685 0.52956813574 0.59323590994 0.2754535377
          0.095105446875 0.53476035595 0.84295940399 0.69353824854 0.60428869724 0.45983874798
          0.27595260739 0.92904937267 0.31252720952 0.087930820882 0.0088010542095 0.83048909903
          0.45287969708 0.69518536329 0.76696527004 0.40617769957 0.2020380348 0.69991290569
          1.0550351143 0.88382661343 0.7806738019 0.61750781536 0.4026568532 1.1531888247
          0.44269323349 0.18453802168 0.098593808711 1.0383096933 0.41124516726 0.66354292631
          0.74078577757 0.36230567098 0.14832225442 0.66348999739 1.0278779268 0.85466080904
          0.74429506063 0.58159399033 0.35683721304 1.1291838884 0.39830592275 0.1339636296
          0.042275365442 1.0150991678 0.21976754069 0.45705515146 0.53025007248 0.17166821659
          -0.029965898022 0.45160463452 0.79834127426 0.63490641117 0.52595877647 0.37504169345
          0.16277365386 0.89715886116 0.19905385375 -0.051240794361 -0.13586938381 0.7917662859
          -0.12438811362 0.10086661577 0.17527583241 -0.170405671 -0.36672914028 0.097878269851
          0.42583411932 0.27317494154 0.16909746826 0.022950293496 -0.17775052786 0.52436923981
          -0.14131832123 -0.38350296021 -0.46462601423 0.42301732302 -0.59856408834 -0.36309602857
          -0.28592100739 -0.64790248871 -0.85043781996 -0.36771693826 -0.031410120428 -0.1885266453
          -0.29080861807 -0.44252887368 -0.65282779932 0.064034037292 -0.61117726564 -0.86169481277
          -0.95265799761 -0.031566616148 -1.1109267473 -0.87695509195 -0.80079972744 -1.159952879
          -1.363163352 -0.87390649319 -0.54293054342 -0.7002401948 -0.79806494713 -0.95540481806
          -1.1574248075 -0.44559210539 -1.1095856428 -1.3635697365 -1.4622924328 -0.54391664267
          0.038536682725 -0.08298689127 -0.16056367755 0.10125623643 0.21289758384 -0.035128332675
          -0.22836633027 -0.166055426 -0.054518330842 -0.013007412665 0.1275087744 -0.3238671422
          0.13364291191 0.26881554723 0.29959240556 -0.29804998636 -0.11467831582 -0.28185787797
          -0.1289306432 -0.099994130433 0.02332909964 0.038170777261 0.15186527371 -0.21503329277
          -0.21754936874 -0.20883984864 -0.19812469184 -0.20423875749 -0.2044673264 -0.1987926662
          -0.19252458215 -0.19215530157 -0.18542537093 -0.17869311571 -0.17628578842 -0.19210521877
          -0.15364454687 -0.14156737924 -0.15647999942 -0.19173911214 -0.18618841469 -0.18608561158
          -0.2123195976 -0.2338578701 -0.23862105608 -0.26916283369 -0.2670366168 -0.28204116225
          -0.23014132679 -0.055399227887 -0.031477082521 -0.059832960367 -0.12659880519 -0.11536260694
          -0.12042836845 -0.16798189282 -0.20949682593 -0.21631060541 -0.2694914341 -0.26524847746
          -0.28971722722 -0.20090307295 0.007254675962 0.032422106713 0.0085875606164 -0.054074626416
          -0.04180572927 -0.047728992999 -0.087445303798 -0.12800522149 -0.12956629694 -0.1786224395
          -0.16767290235 -0.19376021624 -0.11382600665 0.035941399634 0.036138176918 0.025363380089
          -0.010029441677 0.0032057836652 0.0024927037302 -0.024298723787 -0.052734281868 -0.052751734853
          -0.078280709684 -0.081365771592 -0.090870127082 -0.045343268663 -1.2124942717e-10 2.8825701825e-09
          -4.6105580465e-10 -9.0513794376e-12 3.3199200333e-11 2.2026802257e-11 -2.333310975e-11 2.4724183204e-12
          1.034866027e-13 0 0 0 -1.0123106238e-13
        </DataArray>
        <DataArray type="Float32" Name="uy" format="ascii" RangeMin="-1.3130203485" RangeMax="1.7642827034">
          0.18394635618 0.15195943415 0.14519093931 0.38183891773 0.57396584749 0.51100951433
          0.53293901682 0.18332095444 0.15027315915 0.24525128305 0.37750557065 0.54297047853
          0.57118719816 0.48850870132 0.1503174752 0.24888761342 0.54805743694 0.49612671137
          0.13835036755 0.35136470199 0.47017917037 0.13822457194 0.47096791863 0.46688073874
          0.35849779844 0.13201224804 0.38479331136 0.34956493974 0.30313679576 0.35014626384
          0.75456994772 0.67391592264 0.75495499372 0.28635522723 0.64362746477 0.31551542878
          0.69234323502 0.21347029507 0.20460556448 0.25779488683 0.50973409414 0.49101349711
          0.59242880344 0.16909492016 0.42462140322 0.25817143917 0.59424674511 0.23089922965
          0.54138541222 0.25927010179 0.59315758944 0.16751042008 0.42195895314 0.20367215574
          0.48622345924 0.25803604722 0.59089773893 0.31248083711 0.69360184669 -0.011770602316
          -0.022031627595 -0.014313946478 -0.023171328008 -0.014051094651 -0.040695581585 -0.047198370099
          -0.033182714134 -0.055231153965 -0.028868250549 -0.032215256244 -0.034905362874 -0.049942586571
          -0.035599645227 -0.020216064528 -0.02400550805 -0.3042190969 -0.2898093462 -0.30731981993
          -0.27630013227 -0.2854346931 -0.25752481818 -0.25793778896 -0.27674788237 -0.24542413652
          -0.2722427249 -0.25638282299 -0.27848640084 -0.2399199605 -0.24308110774 -0.25974068046
          -0.29705837369 -0.52060604095 -0.48209822178 -0.5218924284 -0.46419394016 -0.48380285501
          -0.40467971563 -0.3969155252 -0.44635668397 -0.36670234799 -0.44347879291 -0.41380706429
          -0.443513304 -0.36146849394 -0.38404327631 -0.43064850569 -0.49287647009 -0.64380210638
          -0.57422810793 -0.64787811041 -0.54469466209 -0.58384346962 -0.43249467015 -0.41283771396
          -0.50167286396 -0.36415597796 -0.50210368633 -0.45853590965 -0.49566617608 -0.3621942997
          -0.41054943204 -0.49405866861 -0.58729815483 -0.59561681747 -0.49849581718 -0.5958301425
          -0.46008330584 -0.51875537634 -0.30923169851 -0.28501078486 -0.40301290154 -0.21581490338
          -0.4020036459 -0.34339308739 -0.39939081669 -0.2147256285 -0.28325605392 -0.39710152149
          -0.51861685514 -0.41573292017 -0.31281408668 -0.41519662738 -0.27150949836 -0.33664482832
          -0.1040764153 -0.078598767519 -0.20856644213 -0.0036906413734 -0.2070260942 -0.14347861707
          -0.20561543107 -0.0042783301324 -0.08184761554 -0.2064421773 -0.33538076282 -0.27377316356
          -0.15147696435 -0.27430635691 -0.10378053784 -0.17840720713 0.092501752079 0.11890845001
          -0.030934851617 0.21357160807 -0.029439497739 0.048360452056 -0.035524003208 0.21360346675
          0.12076304853 -0.026936436072 -0.18344289064 -0.18406113982 -0.032383523881 -0.1848564893
          0.026174945757 -0.068569637835 0.26949030161 0.30132508278 0.11815116554 0.41880440712
          0.11994504184 0.21114701033 0.11445771158 0.41854393482 0.30604249239 0.1180594191
          -0.069392308593 -0.1125741601 0.057186026126 -0.11662027985 0.12609858811 0.021628184244
          0.40069594979 0.43706181645 0.22571215034 0.57221603394 0.23154050112 0.33719953895
          0.22213289142 0.57368832827 0.44408261776 0.23345507681 0.011020291597 -0.06122526899
          0.12878990173 -0.064133755863 0.20486398041 0.085613772273 0.51718562841 0.55819416046
          0.32022356987 0.71122199297 0.32354721427 0.44343018532 0.31511592865 0.71314549446
          0.56306421757 0.32086852193 0.078348569572 -0.11129338294 0.10765623301 -0.11285319179
          0.19680553675 0.05584005639 0.56442171335 0.61439836025 0.33322307467 0.79393237829
          0.33531233668 0.47701954842 0.32652577758 0.79260516167 0.61651659012 0.33432912827
          0.052282266319 -0.27967202663 -0.035878814757 -0.28166911006 0.059419106692 -0.093600831926
          0.4630099833 0.52027362585 0.21093504131 0.71210342646 0.21257935464 0.36808669567
          0.20899157226 0.70965540409 0.52103722095 0.21272388101 -0.097676418722 -0.45967304707
          -0.2070556283 -0.46097913384 -0.10795430839 -0.26380568743 0.30114838481 0.36274969578
          0.049040000886 0.55286604166 0.048047859222 0.20430898666 0.048143815249 0.55187493563
          0.36006066203 0.050000306219 -0.26595562696 -0.54665744305 -0.30095818639 -0.55146121979
          -0.20511424541 -0.35391494632 0.19016896188 0.24922129512 -0.054168209434 0.43132725358
          -0.054520249367 0.098439365625 -0.054619953036 0.43032675982 0.24778470397 -0.04963664338
          -0.36399242282 -0.54734826088 -0.31575956941 -0.55256474018 -0.22326916456 -0.3633672893
          0.14941102266 0.20723833144 -0.083143666387 0.38479122519 -0.079861104488 0.062884926796
          -0.08593442291 0.38216125965 0.20563402772 -0.07695709914 -0.37360787392 -0.56348931789
          -0.33049401641 -0.56107127666 -0.2440444082 -0.38707050681 0.13192503154 0.18830350041
          -0.097988590598 0.36574557424 -0.099717766047 0.04351759702 -0.097092993557 0.36580297351
          0.18781340122 -0.10025084764 -0.38253360987 -0.58242613077 -0.34454962611 -0.58149605989
          -0.25362125039 -0.39786201715 0.13025601208 0.18694904447 -0.10736607015 0.36813646555
          -0.10820024461 0.038802366704 -0.10610322654 0.36838272214 0.18612411618 -0.10686013103
          -0.4014300704 -0.56668186188 -0.33343458176 -0.56804722548 -0.23904536664 -0.38420057297
          0.13814137876 0.19181840122 -0.099987462163 0.37357032299 -0.094861201942 0.049238666892
          -0.10018536448 0.37385445833 0.19596500695 -0.091937698424 -0.390802145 1.0848544836
          0.93009155989 1.0853998661 0.87276798487 0.96708291769 0.6424664259 0.60448843241
          0.7800757885 0.50170940161 0.78551185131 0.69455951452 0.77892786264 0.50233793259
          0.6061912775 0.78206932545 0.96378922462 0.40437218547 0.39029732347 0.33549565077
          0.47089645267 0.42730483413 0.33171889186 0.38012614846 -1.0328531265 -0.87833690643
          -1.0275276899 -0.91269254684 -0.81152534485 -0.90691268444 -0.82533627748 -0.77842545509
          -0.91827279329 -0.84014588594 -0.58325433731 -0.54309260845 -0.72756886482 -0.62321484089
          -0.5987791419 -0.71359407902 -0.43848788738 -0.53143459558 -0.73085331917 -0.71899682283
          -0.64114284515 -0.66001516581 -0.72125685215 -0.70967787504 -0.44203609228 -0.53219872713
          -0.55341899395 -0.60301196575 -0.73319649696 -0.72065526247 -0.90853172541 -0.82751315832
          -0.70140242577 -0.66351509094 -0.6964174509 -0.65310680866 -0.67583721876 -0.60431027412
          -0.59617191553 -0.63201266527 -0.57586878538 -0.63295215368 -0.61441004276 -0.62882685661
          -0.57274848223 -0.59435135126 -0.63168084621 -0.66620242596 -0.47547486424 -0.47589209676
          -0.46714070439 -0.48175805807 -0.48112609982 -0.49505087733 -0.49999728799 -0.4818547368
          -0.51306545734 -0.48307910562 -0.48828551173 -0.47913640738 -0.50420486927 -0.48874208331
          -0.48217743635 -0.46472480893 -0.137190938 -0.17062062025 -0.13055835664 -0.18849271536
          -0.16776508093 -0.25090840459 -0.26006039977 -0.20795629919 -0.2947691977 -0.21099606156
          -0.23324377835 -0.20122815669 -0.28895160556 -0.25343716145 -0.20751045644 -0.15229488909
          0.31837499142 0.24894404411 0.32465279102 0.21990506351 0.26420715451 0.098100751638
          0.079988718033 0.17228296399 0.027502490208 0.17334930599 0.12826177478 0.17387661338
          0.027811029926 0.083649322391 0.17365300655 0.26821875572 0.8005848527 0.6916513443
          0.79997867346 0.64805644751 0.71203321218 0.47449484468 0.44783055782 0.58313107491
          0.3666459024 0.58401358128 0.51331323385 0.58000510931 0.36299735308 0.44044220448
          0.57237303257 0.71433204412 1.0750032663 0.95004928112 1.0743610859 0.89961796999
          0.97248256207 0.70906037092 0.68239808083 0.82991713285 0.592695117 0.82817578316
          0.74707514048 0.82306861877 0.58444565535 0.6635389924 0.81058114767 0.97289597988
          1.1130572557 0.97674244642 1.1111419201 0.92251765728 1.0016824007 0.71722143888
          0.68962967396 0.84675937891 0.59268546104 0.84358203411 0.75970703363 0.84274441004
          0.58336818218 0.67004901171 0.82967340946 1.0027480125 0.96471828222 0.82650381327
          0.96153408289 0.77414882183 0.8569086194 0.56246799231 0.5347135067 0.69281470776
          0.43762409687 0.6922288537 0.60573929548 0.68779075146 0.42685577273 0.51487255096
          0.68127000332 0.85148179531 0.60263991356 0.47479188442 0.59516257048 0.43227237463
          0.51140534878 0.23383790255 0.21161822975 0.35364690423 0.11824581027 0.35569360852
          0.27751454711 0.34901055694 0.10741969943 0.19257855415 0.35050231218 0.49492928386
          0.16006532311 0.037435017526 0.16009269655 -0.0088866697624 0.066080786288 -0.20619982481
          -0.22979059815 -0.082022562623 -0.32696303725 -0.08336173743 -0.16123183072 -0.078848086298
          -0.33038240671 -0.24002923071 -0.085165403783 0.070745848119 -0.17272502184 -0.3206140995
          -0.16242147982 -0.38664197922 -0.29329258204 -0.63434201479 -0.66864949465 -0.47264680266
          -0.79611641169 -0.47819516063 -0.57554525137 -0.4653109014 -0.79201483727 -0.66728550196
          -0.47914764285 -0.27259492874 -0.30422589183 -0.51803797483 -0.29653376341 -0.60201793909
          -0.46874964237 -0.95425122976 -1.0037076473 -0.73510253429 -1.1746828556 -0.73710787296
          -0.86707240343 -0.72717642784 -1.1669663191 -0.99289751053 -0.72811555862 -0.45614528656
          -0.31533026695 -0.55620056391 -0.30888268352 -0.65086448193 -0.49805393815 -1.0564136505
          -1.1146502495 -0.80297517776 -1.3130203485 -0.80411738157 -0.95276629925 -0.7963436842
          -1.3028936386 -1.1007649899 -0.79341495037 -0.48887836933 -0.18277619779 -0.43302434683
          -0.17700022459 -0.53051310778 -0.37112122774 -0.94512379169 -1.0055971146 -0.68447422981
          -1.2084217072 -0.68726503849 -0.84093081951 -0.6798709631 -1.1994608641 -0.99428826571
          -0.6782810092 -0.36505204439 0.084630906582 -0.15409770608 0.087550275028 -0.24566407502
          -0.09463699162 -0.65010297298 -0.71150684357 -0.39864292741 -0.9074947834 -0.39865341783
          -0.54922354221 -0.39391446114 -0.8959544301 -0.69618201256 -0.3896573782 -0.091281786561
          0.49639415741 0.26551547647 0.49880796671 0.18104471266 0.32441201806 -0.20740304887
          -0.26861172915 0.031099472195 -0.45077633858 0.030461577699 -0.11051087081 0.032533619553
          -0.44106423855 -0.24804848433 0.044865902513 0.32504665852 1.1096255779 0.87420803308
          1.1113079786 0.78441929817 0.93134331703 0.39590466022 0.33759981394 0.63658982515
          0.15073147416 0.63617604971 0.48941388726 0.63956910372 0.15253703296 0.3437192142
          0.64009535313 0.93101453781 1.7642827034 1.5214496851 1.7639197111 1.4305005074
          1.5822041035 1.0353531837 0.97646486759 1.277888298 0.7942738533 1.279022336
          1.1286767721 1.2754573822 0.79466855526 0.97949439287 1.2794773579 1.5795291662
          -0.65308427811 -0.5459728241 -0.65393185616 -0.50766992569 -0.57199317217 -0.33729013801
          -0.3072707653 -0.43749383092 -0.23662787676 -0.44111743569 -0.38055101037 -0.43411061168
          -0.24210427701 -0.32039391994 -0.44667732716 -0.56948685646 0.12902680039 0.12991692126
          0.12172631174 0.13928179443 0.12741945684 0.11806558073 0.11839662492 0.4629522562
          0.44893851876 0.43226245046 0.42558553815 0.44654449821 0.46876844764 0.44540026784
          0.42310389876 0.44374242425 0.42699450254 0.45422890782 0.43886119127 0.46677362919
          0.31915688515 0.35905098915 0.40206053853 0.42946538329 0.36162787676 0.29403552413
          0.35968717933 0.43055865169 0.36264806986 0.40345713496 0.31700012088 0.36172863841
          0.29212322831 0.22390632331 0.30227565765 0.37442782521 0.41898369789 0.29767432809
          0.17462188005 0.2964476645 0.41558855772 0.29431915283 0.36880755424 0.22062583268
          0.29312640429 0.1739346087 0.17749765515 0.23987859488 0.30598160625 0.34895381331
          0.24208593369 0.14109858871 0.24367336929 0.34580400586 0.24392946064 0.30516633391
          0.18168361485 0.24099799991 0.14359264076 0.10206519812 0.14000412822 0.17881670594
          0.19498595595 0.1382098645 0.075880728662 0.1385152638 0.19198521972 0.1406237334
          0.17152798176 0.10916716605 0.14204323292 0.080159612 7.3891379127e-11 -2.2676643549e-11
          -5.8648294554e-11 2.7730089058e-11 -5.0157551723e-12 -3.9307987421e-11 -5.4680088582e-12 4.4570881816e-13
          2.2447259438e-13 0 0 0 9.3299955435e-13
        </DataArray>
        <DataArray type="Float32" Name="uz" format="ascii" RangeMin="-0.54098367691" RangeMax="0.3700787127">
          -0.053568229079 -0.021935006604 -0.066472679377 -0.089382439852 -0.11838486791 -0.12845231593
          -0.087420642376 -0.012679416686 0.040626537055 0.0018056044355 -0.045830644667 -0.031432926655
          -0.082231104374 -0.03859641403 -0.10669019818 -0.097642704844 -0.16975200176 -0.1384717077
          0.0022116140462 -0.0030141703319 -0.05535088107 0.041984200478 -0.016005547717 -0.18005757034
          -0.13478969038 -0.12171833962 -0.0677985847 -0.18180201948 -0.10418010503 -0.078780673444
          -0.19117985666 -0.10727505386 -0.089456059039 -0.19642552733 -0.19845373929 -0.26590695977
          -0.27168026567 -0.1055124402 0.009692940861 -0.04669873789 -0.095656104386 0.024323947728
          -0.041182719171 -0.076201088727 -0.059319812804 -0.13090340793 -0.12685589492 -0.19924947619
          -0.19462667406 0.04192822054 0.047592777759 -0.18364958465 -0.172398597 -0.2683955133
          -0.26558619738 -0.2988691628 -0.30170348287 0.0073083820753 0.0023275231943 -0.14724349976
          -0.085259437561 -0.058366004378 -0.16708962619 -0.22356936336 -0.090604558587 0.0082355272025
          -0.036203198135 -0.071732096374 -0.10976940393 -0.17102050781 0.040831562132 -0.16216807067
          -0.23118688166 -0.25524801016 0.012956437655 -0.11273926497 -0.061788093299 -0.045112974942
          -0.12155768275 -0.1678995043 -0.058612249792 0.01904258132 -0.020561039448 -0.040024630725
          -0.076740808785 -0.12016679347 0.038262784481 -0.11064273119 -0.16465091705 -0.18670551479
          0.011589242145 -0.065563082695 -0.038012996316 -0.027447760105 -0.068623684347 -0.097018018365
          -0.029597666115 0.0084809958935 -0.015908258036 -0.016673790291 -0.043315388262 -0.062819957733
          0.014643087983 -0.053626716137 -0.086374260485 -0.10295708477 0.0008508914616 -0.018702903762
          -0.021744575351 -0.025598967448 -0.013787159696 -0.010397322476 -0.019100455567 -0.028859158978
          -0.02488235198 -0.021420573816 -0.018337937072 -0.011291351169 -0.030426682904 -0.012080612592
          -0.0059026344679 -0.0044320668094 -0.029045479372 0.01495695021 -0.016203135252 -0.032326351851
          0.026973158121 0.057460855693 -0.018753284588 -0.075144588947 -0.043921243399 -0.033288985491
          -0.0038394723088 0.026114447042 -0.088346555829 0.019937157631 0.062343627214 0.074849821627
          -0.070410333574 0.021921565756 -0.020862789825 -0.037790659815 0.033783625811 0.07419846952
          -0.023108709604 -0.095637261868 -0.057665444911 -0.041645117104 -0.0053299064748 0.03664553538
          -0.11146892607 0.02726053074 0.080970600247 0.09702989459 -0.086905963719 0.014807586558
          -0.032131504267 -0.04249099642 0.019892580807 0.058658283204 -0.032958105206 -0.097835086286
          -0.068313755095 -0.04761390388 -0.019612479955 0.020818578079 -0.11629885435 0.012153691612
          0.058056142181 0.075194612145 -0.093467444181 0.0061266068369 -0.0294186268 -0.040538713336
          0.015272653662 0.044788487256 -0.023687981069 -0.072300955653 -0.05435275659 -0.03034292534
          -0.015154349618 0.018263500184 -0.091580852866 0.016982810572 0.050834689289 0.062227588147
          -0.078850567341 0.0056879823096 -0.014620364644 -0.033278245479 0.024485044181 0.045256726444
          0.0023296684958 -0.031233711168 -0.02473015897 0.0025128088892 0.0035283807665 0.03336218372
          -0.051050107926 0.038732860237 0.063893139362 0.067699044943 -0.052384242415 0.011844279245
          0.0090989116579 -0.0037362899166 0.025552649051 0.031407341361 0.029884232208 0.012813842855
          0.011718015186 0.033271539956 0.023798145354 0.038143914193 -0.0047675580718 0.050740383565