<VTKFile type="UnstructuredGrid" version="1.0" byte_order="LittleEndian" header_type="UInt64">
  <UnstructuredGrid>
    <Piece NumberOfPoints="791" NumberOfCells="973">
      <PointData>
        <DataArray type="Float32" Name="ux" format="ascii" RangeMin="-0.012561159208" RangeMax="0.012212519534">
          0.0030949045904 -0.0020507620648 0.0047955666669 0.0038211909123 0.0030922845472 0.0048016211949
          -0.0020561527926 -0.0034340196289 -0.011036813259 -0.0086825089529 -0.0041514243931 -0.011033252813
          -0.0034361777361 -0.008678839542 0.010728144087 0.0083321724087 0.010724468157 0.0083191161975
          -0.006360579282 -0.010975639336 -0.0063544041477 -0.012561159208 -0.012552680448 0.012207339518
          0.010585668497 0.012212519534 -0.00017255899729 0.0024575311691 -0.0015198718756 -0.0027991307434
          0.0024425152224 -0.0015199193731 -0.0027836961672 0.0033947410993 0.0034083409701 0.006847307086
          0.0068676033989 -0.0016026769299 -0.0076846475713 -0.0046639563516 -0.0016199874226 -0.0078049525619
          -0.0046990038827 -0.0031039263122 -0.0031732036732 -0.00017267769726 -0.00017134258815 0.0035283064935
          0.0035712397657 -0.0091569218785 -0.0092287641019 0.0027552396059 0.0028184803668 0.0073460787535
          0.0074720899574 0.0088111124933 0.0088908364996 -0.0071994885802 -0.007218006067 0.0024658087641
          -0.0015297930222 -0.0028154840693 0.0034060459584 0.0068809492514 -0.001608963008 -0.0077002677135
          -0.0046844515018 -0.0031080134213 -0.00017662545724 0.0035342387855 -0.0091927582398 0.0027505797334
          0.0073530245572 0.0088398540393 -0.007239872124 0.0024739275686 -0.0015398608521 -0.0028363775928
          0.0034052368719 0.0068949298002 -0.0016109903809 -0.0076813059859 -0.0046889823861 -0.003099624766
          -0.00018283376994 0.0035203038715 -0.0091945696622 0.0027304834221 0.0073211477138 0.0088290059939
          -0.0072661889717 0.0024781534448 -0.0015518681612 -0.00285782828 0.0034029791132 0.0069089229219
          -0.0016163239488 -0.0076721115038 -0.0046984939836 -0.0030961735174 -0.00019129163411 0.0035072811879
          -0.0092058740556 0.0027103549801 0.0072945198044 0.0088234515861 -0.0072963885032 0.0024806894362
          -0.0015660000499 -0.0028814147227 0.003398970468 0.0069203730673 -0.0016236188821 -0.0076640667394
          -0.004709882196 -0.0030945194885 -0.00020166178001 0.0034921972547 -0.0092180147767 0.0026883236133
          0.0072651975788 0.0088148145005 -0.0073281102814 0.0024810065515 -0.0015816367231 -0.0029062242247
          0.0033928591292 0.0069294008426 -0.0016326579498 -0.0076582804322 -0.0047227921896 -0.0030949111097
          -0.00021376165387 0.0034754155204 -0.0092318113893 0.0026648456696 0.0072347028181 0.0088044004515
          -0.0073608215898 0.0024794256315 -0.001598685747 -0.0029321438633 0.0033850709442 0.006936209742
          -0.0016433090204 -0.0076544987969 -0.0047371904366 -0.0030971607193 -0.00022736632673 0.0034572738223
          -0.0092469900846 0.0026402049698 0.0072032157332 0.008792353794 -0.0073943519965 0.0024760433007
          -0.0016168906586 -0.0029588625766 0.0033757125493 0.0069408598356 -0.001655368018 -0.0076526571065
          -0.0047528250143 -0.0031011407264 -0.00024227867834 0.0034379714634 -0.0092633534223 0.0026146685705
          0.0071710729972 0.0087788784876 -0.0074283559807 0.0024709810968 -0.0016360484296 -0.0029861223884
          0.0033649527468 0.0069434200414 -0.001668671146 -0.0076526775956 -0.0047695138492 -0.0031067382079
          -0.00025830729282 0.0034177384805 -0.0092807048932 0.0025885014329 0.0071385824122 0.0087641589344
          -0.0074625252746 0.0024643389042 -0.0016559580108 -0.0030136639252 0.0033529333305 0.0069439406507
          -0.0016830601962 -0.0076545099728 -0.0047870781273 -0.0031138535123 -0.0002752742439 0.0033967869822
          -0.0092988694087 0.0025619589724 0.0071060531773 0.0087483776733 -0.0074965567328 0.0024562024046
          -0.0016764315078 -0.0030412392225 0.0033397842199 0.0069424533285 -0.0016983922105 -0.0076581179164
          -0.0048053525388 -0.0031224042177 -0.00029301390168 0.003375318367 -0.009317680262 0.0025352872908
          0.0070737833157 0.0087316986173 -0.007530155126 0.0024466402829 -0.0016972940648 -0.0030686117243
          0.0033256199677 0.0069389734417 -0.0017145379679 -0.0076634832658 -0.0048241843469 -0.0031323225703
          -0.00031137419865 0.003353522392 -0.009336986579 0.0025087206159 0.0070420624688 0.0087142745033
          -0.0075630345382 0.002435706323 -0.001718384563 -0.0030955565162 0.003310540691 0.0069334977306
          -0.0017313833814 -0.0076706050895 -0.0048434366472 -0.0031435582787 -0.00033021741547 0.0033315743785
          -0.0093566495925 0.0024824819993 0.007011169102 0.0086962413043 -0.0075949197635 0.0024234359153
          -0.0017395565519 -0.0031218626536 0.0032946297433 0.0069260052405 -0.0017488297308 -0.0076795006171
          -0.004862986505 -0.0031560773496 -0.00034942114144 0.0033096352126 -0.0093765472993 0.0024567793589
          0.0069813681766 0.0086777238175 -0.0076255491003 0.0024098483846 -0.0017606794136 -0.0031473345589
          0.003277953947 0.0069164577872 -0.0017667955253 -0.0076902052388 -0.004882727284 -0.003169863252
          -0.00036887914757 0.003287851112 -0.0093965725973 0.0024318068754 0.006952912081 0.0086588272825
          -0.0076546752825 0.0023949453607 -0.0017816405743 -0.003171793418 0.0032605645247 0.0069047980942
          -0.001785214874 -0.0077027711086 -0.0049025709741 -0.0031849164516 -0.00038850234705 0.0032663489692
          -0.0094166379422 0.0024077405687 0.0069260341115 0.0086396401748 -0.0076820673421 0.002378704492
          -0.001802340732 -0.0031950729899 0.0032424863894 0.0068909442052 -0.0018040454015 -0.007717277389
          -0.0049224458635 -0.0032012613956 -0.00040821975563 0.0032452456653 -0.0094366706908 0.0023847443517
          0.0069009596482 0.0086202351376 -0.0077075040899 0.0023611045908 -0.0018227146938 -0.0032170454506
          0.0032237502746 0.0068748253398 -0.0018232481088 -0.0077337911353 -0.0049422997981 -0.0032189218327
          -0.00042797939386 0.003224614542 -0.0094566196203 0.0023629437201 0.006877863314 0.0086006624624
          -0.0077308146283 0.0023420571815 -0.0018426858587 -0.0032375524752 0.0032043154351 0.0068562673405
          -0.0018428361509 -0.0077524748631 -0.0049621011131 -0.0032379929908 -0.00044774942216 0.0032045599073
          -0.0094764530659 0.0023424907122 0.0068569825962 0.0085809547454 -0.0077517726459 0.0030312463641
          -0.0017687526997 -0.0033823240083 0.0040105464868 0.0081512136385 -0.001811173046 -0.0087709985673
          -0.0053799441084 -0.0035126726143 -0.00017503608251 0.0040751365013 -0.010588928126 0.00315299863
          0.0084293792024 0.010249805637 -0.0085086785257 -0.002087024739 -0.010209972039 -0.0039884145372
          -0.00017005539848 0.0048462348059 0.003645389108 0.0098622795194 0.0024340488017 -0.0015299797524
          -0.002794718137 0.002441532677 -0.0015377481468 -0.0028175963089 0.0033998852596 0.003379291622
          0.0068613183685 0.0068333586678 -0.0016304330202 -0.0078180255368 -0.0047108945437 -0.0016204846324
          -0.0077050607651 -0.0046830875799 -0.0031843171455 -0.0031224037521 -0.00018105669005 -0.00018985837232
          0.0035630024504 0.0035127873998 -0.0092426436022 -0.0091780237854 0.0028098027688 0.002739264397
          0.0074655618519 0.007332178764 0.0088853370398 0.0087979733944 -0.0072310259566 -0.0072198868729
          0.0024409189355 -0.0015564932255 -0.0028428684454 0.003381579183 0.0068581518717 -0.0016356739216
          -0.0077295904048 -0.0047125346027 -0.0031353894155 -0.00020269885135 0.0035097934306 -0.0092228157446
          0.0027256929316 0.0073302215897 0.0088178711012 -0.0072692022659 0.0024387154263 -0.0015769051388
          -0.0028740765993 0.0033704692032 0.006861789152 -0.001648033387 -0.0077209640294 -0.0047273868695
          -0.003137328662 -0.00021924052271 0.0034855313133 -0.009234954603 0.0026952719782 0.0072880117223
          0.0087966704741 -0.0073058414273 0.0024313277099 -0.0016005260404 -0.0029071443714 0.0033565864433
          0.0068641677499 -0.0016649824101 -0.0077233868651 -0.0047485204414 -0.0031454896089 -0.00023931529722
          0.0034608903807 -0.0092578837648 0.002663530875 0.0072497660294 0.0087795006111 -0.0073476633988
          0.0024210866541 -0.0016274399823 -0.0029435076285 0.0033397972584 0.0068628345616 -0.0016850589309
          -0.0077281263657 -0.0047726924531 -0.0031566133257 -0.00026246812195 0.0034330242779 -0.0092828124762
          0.0026287222281 0.0072076609358 0.0087580755353 -0.0073921685107 0.0024075841065 -0.00165690016
          -0.0029821377248 0.003319860436 0.006858037319 -0.0017079215031 -0.0077361664735 -0.0047994288616
          -0.0031708253082 -0.00028839270817 0.0034024175256 -0.0093104382977 0.002591424156 0.0071633406915
          0.00873383414 -0.0074387062341 0.0023912603501 -0.0016886959784 -0.0030228008982 0.0032973245252
          0.0068500982597 -0.0017333193682 -0.0077471337281 -0.0048285764642 -0.0031878182199 -0.00031674528145
          0.0033695278689 -0.0093403700739 0.0025520403869 0.0071171051823 0.0087070353329 -0.0074869859964
          0.0023723270278 -0.001722455374 -0.0030650708359 0.003272410715 0.0068391924724 -0.0017609328497
          -0.00776084885 -0.0048597678542 -0.0032073492184 -0.00034721309203 0.0033346700948 -0.0093722930178
          0.0025109529961 0.0070694065653 0.0086780013517 -0.0075365472585 0.002351017436 -0.0017578640254
          -0.0031085785013 0.0032453991007 0.0068255006336 -0.0017904867418 -0.007777122315 -0.0048927101307
          -0.0032291945536 -0.00037949360558 0.0032981850673 -0.0094059016556 0.0024685382377 0.0070206639357
          0.0086470274255 -0.0075869695283 0.0023275371641 -0.0017946148291 -0.0031529583503 0.0032165374141
          0.0068091782741 -0.001821717131 -0.0077957981266 -0.0049271183088 -0.003253148403 -0.00041330285603
          0.0032603910659 -0.0094409128651 0.002425157465 0.006971291732 0.0086144004017 -0.007637844421
          0.0023020717781 -0.0018324201228 -0.0031978629995 0.0031860556919 0.0067903585732 -0.0018543808255
          -0.0078167393804 -0.0049627264962 -0.0032790279947 -0.00044837512542 0.0032215900719 -0.0094770602882
          0.0023811568972 0.0069216890261 0.0085803857073 -0.0076887765899 0.0022747837938 -0.0018710115692
          -0.0032429615967 0.0031541618519 0.0067691486329 -0.0018882554723 -0.0078398352489 -0.0049992892891
          -0.0033066726755 -0.00048446506844 0.0031820642762 -0.0095140999183 0.0023368643597 0.0068722381257
          0.0085452292114 -0.0077393865213 0.0022458117455 -0.0019101422513 -0.0032879444771 0.0031210412271
          0.0067456318066 -0.0019231410697 -0.0078649995849 -0.0050365831703 -0.0033359464724 -0.0005213493132
          0.0031420749146 -0.0095518073067 0.0022925876547 0.006823303178 0.0085091525689 -0.0077893137932
          0.0022152690217 -0.0019495887682 -0.0033325233962 0.0030868551694 0.0067198639736 -0.0019588619471
          -0.007892170921 -0.0050744093023 -0.0033667380922 -0.00055882823654 0.0031018608715 -0.0095899831504
          0.0022486126982 0.0067752269097 0.0084723578766 -0.0078382194042 0.0021832422353 -0.0019891527481
          -0.0033764345571 0.0030517377891 0.0066918740049 -0.0019952687435 -0.0079213175923 -0.0051125925966
          -0.0033989632502 -0.00059672782663 0.0030616349541 -0.0096284523606 0.0022052007262 0.0067283287644
          0.0084350174293 -0.007885787636 0.0021497905254 -0.0020286638755 -0.0034194421023 0.0030157978181
          0.0066616642289 -0.0020322382916 -0.0079524340108 -0.0051509868354 -0.0034325651359 -0.0006349014584
          0.0030215824954 -0.0096670696512 0.0021625857335 0.0066829002462 0.0083972793072 -0.00793173071
          0.0021149383392 -0.0020679766312 -0.0034613332245 0.0029791067354 0.0066291973926 -0.0020696811844
          -0.0079855537042 -0.0051894751377 -0.0034675216302 -0.00067323178519 0.0029818662442 -0.0097057167441
          0.0021209781989 0.0066392128356 0.0083592589945 -0.0079757804051 0.0020786982495 -0.0021069915965
          -0.0035019461066 0.0029417295009 0.0065944367088 -0.0021075250115 -0.0080207092687 -0.005227970425
          -0.0035038224887 -0.00071163260145 0.0029425937682 -0.0097443079576 0.002080537146 0.0065974751487
          0.0083210449666 -0.0080177327618 0.0020410027355 -0.0021456107497 -0.0035411010031 0.0029036465567
          0.0065572308376 -0.0021457611583 -0.0080580413342 -0.0052664205432 -0.0035415415186 -0.00075005082181
          0.0029038910288 -0.0097827902064 0.0020414362662 0.0065579460934 0.0082826884463 -0.0080573391169
          0.0030301637016 -0.001773647964 -0.0033859610558 0.0040101199411 0.0081511475146 -0.001816426171
          -0.0087790731341 -0.0053853197023 -0.0035194747616 -0.0001791100367 0.0040727360174 -0.010596160777
          0.0031489045359 0.0084277559072 0.010249243118 -0.008514534682 -0.0020887544379 -0.010213797912
          -0.0039907223545 -0.00017086409207 0.0048450948671 0.0036442517303 0.0098628653213 -0.006175857503
          -0.0076040467247 -0.0061748358421 -0.0024121410679 -0.0030042808503 -0.0024117412977 -0.00010761761223
          0.0021929345094 0.0027856775559 0.005961343646 0.0059645664878 0.0073975487612 0.0021933070384
          -0.0046638702042 -0.005747393705 -0.0046641197987 -0.0018294703914 -0.0022486578673 -0.0018295394257
          -6.7116015998e-05 0.001695262501 0.0021152261179 0.0045291208662 0.004528414458 0.0056108334102
          0.0016952847363 -0.0032797676977 -0.0040392703377 -0.0032796992455 -0.0012751971371 -0.0015838444233
          -0.0012751882896 -3.5879173083e-05 0.0012023834279 0.0015119642485 0.0032082479447 0.0032084085979
          0.0039684963413 0.0012023560703 -0.0020604033489 -0.0025395820849 -0.0020604133606 -0.00079841626575
          -0.00098960846663 -0.0007984211552 -1.5227246877e-05 0.00076726038242 0.00095925846836 0.002029954223
          0.002029925352 0.0025092021096 0.00076727539999 -0.00097520154668 -0.0011997817783 -0.00097519240808
          -0.00037634602631 -0.00046909504454 -0.00037634809269 -3.5247294363e-06 0.0003682935203 0.00046208090498
          0.00096816621954 0.00096817966551 0.0011930272449 0.00036829337478 0 0
          0 0 0 0 0 0
          0 0 0 0 0
        </DataArray>
        <DataArray type="Float32" Name="uy" format="ascii" RangeMin="-1.2251996994" RangeMax="1.2251936197">
          -0.0089762220159 -0.0086162043735 -0.0084286658093 6.904794958e-08 0.0089727845043 0.0084257312119
          0.00861351192 -0.0089963069186 -0.0089553929865 -0.0056481771171 1.1243039211e-07 0.0089518763125
          0.0089927930385 0.0056468108669 -0.0089846244082 -0.0056872731075 0.0089801810682 0.0056847911328
          -0.0081960000098 -8.9166542239e-07 0.0081938421354 -0.0083236824721 0.0083207581192 0.008267197758
          -1.850097533e-06 -0.0082692047581 -1.6813835657e-08 0.097891189158 0.093707531691 0.097885794938
          0.069439537823 0.065391123295 0.069424644113 0.09214643389 0.063856229186 0.0948978737
          0.066515609622 0.085123553872 0.084275647998 0.089542649686 0.056839078665 0.056050222367
          0.061278738081 0.080701336265 0.052416991442 0.089464575052 0.061193265021 0.086841866374
          0.058575619012 0.089768588543 0.061506554484 0.080709256232 0.052423719317 0.084274418652
          0.056058913469 0.089763216674 0.061500314623 0.094896554947 0.066522561014 0.13244947791
          0.12828445435 0.13244208694 0.12672379613 0.12944872677 0.11971791834 0.11886160821
          0.12412264943 0.11531452835 0.12404929101 0.121428743 0.12432647496 0.11532090604
          0.11886231601 0.1243218258 0.12944833934 0.17279072106 0.1686077565 0.17278465629
          0.1670384407 0.16976100206 0.16003637016 0.15916487575 0.16443167627 0.15563987195
          0.16436558962 0.16174116731 0.16461792588 0.15564592183 0.15916486084 0.16461355984
          0.16976037621 0.21834756434 0.21415497363 0.2183419168 0.21257889271 0.21529394388
          0.20558136702 0.20469638705 0.2099673152 0.20119541883 0.20990744233 0.20727999508
          0.21013531089 0.20120082796 0.20469661057 0.21013140678 0.21529349685 0.26862174273
          0.26441812515 0.26861673594 0.26283526421 0.2655441463 0.25584310293 0.2549444437
          0.26021930575 0.25146657228 0.26016578078 0.25753557682 0.26036962867 0.25147143006
          0.25494456291 0.2603661418 0.26554372907 0.32311454415 0.31890055537 0.32311010361
          0.31731107831 0.32001364231 0.31032380462 0.30941197276 0.31469067931 0.30595672131
          0.31464329362 0.31201031804 0.31482377648 0.30596101284 0.30941209197 0.31482067704
          0.32001325488 0.38134133816 0.37711724639 0.38133746386 0.37552142143 0.37821790576
          0.36853906512 0.36761441827 0.37289682031 0.36418107152 0.37285536528 0.37021976709
          0.37301319838 0.36418482661 0.36761450768 0.37301048636 0.37821757793 0.44283282757
          0.43859910965 0.44282948971 0.43699717522 0.43968775868 0.43001952767 0.42908263206
          0.43436852098 0.42567035556 0.43433278799 0.43169465661 0.43446886539 0.42567360401
          0.42908272147 0.43446654081 0.43968749046 0.50713807344 0.50289517641 0.50713521242
          0.50128746033 0.50397241116 0.49431434274 0.49336576462 0.49865496159 0.48997360468
          0.49862468243 0.49598416686 0.49874001741 0.48997634649 0.49336582422 0.49873805046
          0.50397217274 0.5738273859 0.5695758462 0.57382500172 0.56796264648 0.5706423521
          0.56099390984 0.56003427505 0.56532657146 0.556661129 0.5653014183 0.56265866756
          0.56539726257 0.55666339397 0.56003433466 0.56539559364 0.57064211369 0.64249551296
          0.63823604584 0.64249360561 0.63661772013 0.63929241896 0.62965303659 0.62868314981
          0.63397830725 0.62532764673 0.63395792246 0.63131314516 0.63403552771 0.62532949448
          0.62868320942 0.6340342164 0.63929229975 0.71276503801 0.70849823952 0.7127635479
          0.70687526464 0.70954543352 0.69991439581 0.6989350915 0.70423287153 0.69559580088
          0.70421683788 0.70157015324 0.70427775383 0.69559729099 0.6989351511 0.70427668095
          0.70954531431 0.78428959846 0.78001624346 0.78428852558 0.77838909626 0.78105515242
          0.77143156528 0.77044385672 0.77574390173 0.76711916924 0.77573180199 0.77308344841
          0.77577769756 0.76712030172 0.77044385672 0.7757769227 0.78105503321 0.85675734282
          0.85247820616 0.85675656796 0.85084736347 0.85350984335 0.84389287233 0.84289777279
          0.84819984436 0.83958595991 0.84819120169 0.84554135799 0.84822392464 0.83958673477
          0.84289777279 0.84822332859 0.85350978374 0.92989450693 0.92561048269 0.92989397049
          0.92397654057 0.926635921 0.91702467203 0.91602319479 0.9213269949 0.91272228956
          0.92132127285 0.91867023706 0.92134279013 0.912722826 0.91602319479 0.9213424325
          0.9266358614 1.0034688711 0.99918097258 1.0034686327 0.99754458666 1.0002014637
          0.99059474468 0.98958820105 0.99489337206 0.9862960577 0.9948900342 0.99223792553
          0.99490255117 0.98629635572 0.98958820105 0.99490231276 1.0002014637 1.0772936344
          1.0730028152 1.0772935152 1.071364522 1.0740195513 1.0644161701 1.0634059906
          1.0687121153 1.0601203442 1.0687105656 1.066057682 1.0687164068 1.0601204634
          1.0634059906 1.0687162876 1.0740195513 1.1512303352 1.1469377279 1.1512303352
          1.1452983618 1.1479523182 1.1383510828 1.1373385191 1.1426452398 1.1340568066
          1.142644763 1.1399915218 1.1426464319 1.1340569258 1.1373385191 1.1426464319
          1.1479523182 1.2251936197 1.2209004164 1.2251936197 1.2192605734 1.2219141722
          1.2123135328 1.2113002539 1.216607213 1.2080199718 1.2166070938 1.2139536142
          1.2166074514 1.2080199718 1.2113002539 1.2166074514 1.2219141722 0.034411653876
          0.033824577928 0.034391421825 0.033577937633 0.034087684005 0.031891040504 0.031878557056
          0.033050134778 0.030748531222 0.032969046384 0.032382562757 0.033253047615 0.03074824065
          0.031888592988 0.033262521029 0.034108921885 0.0079345349222 0.0079455794767 0.0078190760687
          0.0081749232486 0.0080178910866 0.0078074987978 0.0079547148198 -0.069454230368 -0.06540375948
          -0.069439217448 -0.097905211151 -0.093719609082 -0.097899742424 -0.063868165016 -0.092157810926
          -0.066528856754 -0.09491045773 -0.056847944856 -0.056058701128 -0.061289455742 -0.085131809115
          -0.08428350091 -0.089552819729 -0.052424006164 -0.08070769906 -0.061204060912 -0.089474730194
          -0.058585170656 -0.086850829422 -0.061517342925 -0.089778743684 -0.052430670708 -0.080715537071
          -0.056067250669 -0.084282152355 -0.061510972679 -0.089773409069 -0.06653560698 -0.094909027219
          -0.13246293366 -0.12829595804 -0.13245546818 -0.12673458457 -0.12946075201 -0.11972560734
          -0.11886889488 -0.12413223833 -0.11532033235 -0.12405888736 -0.12143713236 -0.12433607131
          -0.11532663554 -0.11886948347 -0.1243314147 -0.12946024537 -0.17280364037 -0.16861872375
          -0.17279751599 -0.1670486927 -0.16977247596 -0.16004352272 -0.15917162597 -0.16444073617
          -0.15564513206 -0.16437464952 -0.16174903512 -0.16462698579 -0.15565110743 -0.15917150676
          -0.16462261975 -0.1697717607 -0.21835996211 -0.21416543424 -0.21835426986 -0.21258863807
          -0.21530491114 -0.20558801293 -0.20470261574 -0.20997586846 -0.20120017231 -0.2099159807
          -0.20728734136 -0.21014384925 -0.20120550692 -0.20470273495 -0.21013994515 -0.21530437469
          -0.26863366365 -0.26442810893 -0.26862862706 -0.26284453273 -0.26555463672 -0.25584927201
          -0.25495016575 -0.26022735238 -0.25147083402 -0.26017382741 -0.25754246116 -0.2603777051
          -0.25147563219 -0.25495022535 -0.26037418842 -0.26555410028 -0.32312598825 -0.31891006231
          -0.3231215179 -0.31731987 -0.32002362609 -0.31032949686 -0.30941721797 -0.3146982789
          -0.3059605062 -0.31465089321 -0.31201672554 -0.31483137608 -0.30596473813 -0.30941727757
          -0.31482827663 -0.32002320886 -0.38135233521 -0.3771263063 -0.38134843111 -0.37552976608
          -0.3782274425 -0.36854428053 -0.36761921644 -0.37290397286 -0.36418440938 -0.37286251783
          -0.37022572756 -0.37302035093 -0.36418813467 -0.36761927605 -0.37301763892 -0.37822705507
          -0.44284340739 -0.43860775232 -0.44284000993 -0.43700507283 -0.43969687819 -0.43002432585
          -0.4290869832 -0.4343752563 -0.42567324638 -0.43433949351 -0.43170019984 -0.43447560072
          -0.42567646503 -0.42908704281 -0.43447324634 -0.43969655037 -0.50714820623 -0.50290340185
          -0.50714534521 -0.50129491091 -0.50398111343 -0.49431872368 -0.49336969852 -0.49866127968
          -0.48997607827 -0.49863097072 -0.49598926306 -0.4987463057 -0.48997876048 -0.49336972833
          -0.49874433875 -0.50398081541 -0.57383710146 -0.5695836544 -0.57383471727 -0.56796973944
          -0.57065057755 -0.56099784374 -0.56003779173 -0.56533247232 -0.55666315556 -0.56530731916
          -0.56266337633 -0.56540310383 -0.55666542053 -0.56003785133 -0.5654014945 -0.57065033913
          -0.64250481129 -0.63824343681 -0.64250290394 -0.63662439585 -0.63930028677 -0.62965661287
          -0.62868630886 -0.63398379087 -0.62532931566 -0.63396340609 -0.63131737709 -0.63404101133
          -0.6253311038 -0.62868630886 -0.63403970003 -0.63930010796 -0.71277397871 -0.70850521326
          -0.71277248859 -0.70688152313 -0.7095528841 -0.69991749525 -0.6989377737 -0.70423793793
          -0.69559705257 -0.70422190428 -0.70157402754 -0.70428282022 -0.69559848309 -0.69893783331
          -0.70428174734 -0.70955276489 -0.78429812193 -0.78002279997 -0.78429698944 -0.77839493752
          -0.78106218576 -0.7714343071 -0.77044612169 -0.77574855089 -0.7671200037 -0.77573651075
          -0.77308690548 -0.77578240633 -0.76712107658 -0.7704461813 -0.77578157187 -0.78106206656
          -0.85676544905 -0.85248440504 -0.85676467419 -0.8508528471 -0.85351645947 -0.84389525652
          -0.84289968014 -0.84820407629 -0.83958637714 -0.84819549322 -0.84554445744 -0.84822815657
          -0.839587152 -0.84289968014 -0.84822762012 -0.85351639986 -0.92990225554 -0.92561626434
          -0.92990171909 -0.92398160696 -0.92664217949 -0.91702657938 -0.91602468491 -0.9213308692
          -0.91272234917 -0.92132514715 -0.91867291927 -0.92134672403 -0.912722826 -0.91602474451
          -0.9213463068 -0.92664211988 -1.0034762621 -0.9991863966 -1.0034759045 -0.99754923582
          -1.000207305 -0.9905962944 -0.98958933353 -0.99489682913 -0.98629575968 -0.99489349127
          -0.99224025011 -0.99490600824 -0.9862959981 -0.98958933353 -0.99490582943 -1.000207305
          -1.0773005486 -1.073007822 -1.0773004293 -1.0713688135 -1.0740250349 -1.0644173622
          -1.0634067059 -1.0687152147 -1.0601196289 -1.068713665 -1.0660595894 -1.0687195063
          -1.0601197481 -1.0634067059 -1.0687193871 -1.0740250349 -1.1512368917 -1.1469423771
          -1.1512368917 -1.1453022957 -1.147957325 -1.1383517981 -1.1373387575 -1.1426479816
          -1.1340557337 -1.1426473856 -1.1399929523 -1.1426491737 -1.1340557337 -1.1373387575
          -1.1426491737 -1.147957325 -1.2251996994 -1.2209045887 -1.2251996994 -1.2192640305
          -1.2219188213 -1.2123140097 -1.2113001347 -1.216609478 -1.2080184221 -1.2166093588
          -1.2139548063 -1.2166097164 -1.2080184221 -1.2113001347 -1.2166097164 -1.2219188213
          -0.034423418343 -0.033835042268 -0.034403260797 -0.033587697893 -0.034098140895 -0.031898327172
          -0.031885448843 -0.033059176058 -0.030754156411 -0.032977737486 -0.03239043802 -0.033261816949
          -0.03075372614 -0.031895447522 -0.033271629363 -0.034119732678 -0.0079361880198 -0.0079478975385
          -0.0078204423189 -0.0081775272265 -0.0080196177587 -0.0078084086999 -0.0079558836296 0.0044973301701
          -9.0448736501e-07 -0.0044992272742 -0.007281135302 -1.1378222098e-06 0.0072797257453 -1.1219669886e-06
          -0.0072852708399 -1.1882312947e-06 -0.0044882777147 0.004486551974 -7.173908898e-07 0.0072837765329
          0.0033274001908 -5.0442946531e-07 -0.0033283873927 -0.0053957765922 -4.4488183448e-07 0.0053947167471
          -4.4064020699e-07 -0.0053955009207 -4.1325310463e-07 -0.0033321997616 0.0033312137239 -5.3590667903e-07
          0.0053945011459 0.0023536847439 -2.6827621014e-07 -0.002354223514 -0.003809959162 -2.7974223826e-07
          0.0038094385527 -2.8123918128e-07 -0.0038104695268 -2.9111149047e-07 -0.0023540358525 0.002353486605
          -2.6393391295e-07 0.0038099237718 0.0014834365575 -1.2033524399e-07 -0.001483674394 -0.0024048218038
          -1.1447527015e-07 0.002404587809 -1.1379671605e-07 -0.0024051717483 -1.1175009718e-07 -0.0014845033875
          0.0014842683449 -1.2154121976e-07 0.0024049449712 0.0007032622234 -3.0965409792e-08 -0.00070332142059
          -0.0011416680645 -2.8528090112e-08 0.0011416161433 -2.7810356684e-08 -0.0011421241798 -2.9059902928e-08
          -0.00070402142592 0.00070396135561 -3.0786868166e-08 0.0011420703959 0 0
          0 0 0 0 0 0
          0 0 0 0 0
        </DataArray>
        <DataArray type="Float32" Name="uz" format="ascii" RangeMin="-0.041612833738" RangeMax="0.041607506573">
          -0.00022035893926 0.00023228825012 -0.0007019516197 6.7458768171e-07 0.00022081319185 0.00070360221434
          -0.00023153728398 0.00020197239064 0.0014794457238 0.00031885047792 2.642130994e-07 -0.0014798571356
          -0.00020058447262 -0.00031747788307 -0.0014933298808 -0.00040525500663 0.0014939877437 0.00040722161066
          0.00097231235122 1.1015766859e-06 -0.00097103934968 0.0018217928009 -0.0018209508853 0.0018558527809
          1.2484298395e-06 -0.0018540725578 2.2567236613e-07 0.0054650367238 -0.0027212358546 -0.0054562250152
          0.0043971338309 -0.0021896564867 -0.0043844012544 0.0071419342421 0.0057292520069 0.014308593236
          0.011420737952 -0.0027273071464 -0.014308914542 -0.0088205086067 -0.0021334839985 -0.01118100062
          -0.0070268898271 -0.0054718120955 -0.0042208340019 3.9604728954e-06 4.2117599151e-06 0.007148378063
          0.0056371558458 -0.017674740404 -0.014007008635 0.0054745012894 0.0042321765795 0.014319781214
          0.011187640019 0.017678458244 0.01401997637 -0.014293939807 -0.011424886063 0.0065103261732
          -0.0032447604463 -0.0064974376 0.0085141696036 0.017035134137 -0.0032477772329 -0.017031107098
          -0.010514907539 -0.0065054986626 4.0835398067e-06 0.0085132997483 -0.02105111815 0.0065075787716
          0.017038047314 0.021056491882 -0.017021842301 0.0074670277536 -0.0037208837457 -0.0074520907365
          0.0097624287009 0.01953677088 -0.0037247324362 -0.01952389814 -0.012056265026 -0.0074587240815
          4.0494733184e-06 0.0097597949207 -0.024134933949 0.0074580875225 0.019529499114 0.024140011519
          -0.019521206617 0.0083314925432 -0.0041523738764 -0.0083141867071 0.010893798433 0.021797802299
          -0.0041573341005 -0.021787747741 -0.01345445402 -0.0083244685084 4.0580821405e-06 0.010890630074
          -0.026930971071 0.0083215972409 0.021792054176 0.026936186478 -0.021781176329 0.0091092428192
          -0.00454024598 -0.0090900044888 0.011910928413 0.023832071573 -0.0045462837443 -0.023821631446
          -0.014711388387 -0.0091020045802 4.0564491428e-06 0.011907275766 -0.029444377869 0.0090972371399
          0.023824606091 0.029449639842 -0.023814212531 0.009801492095 -0.0048855878413 -0.009780487977
          0.012816407718 0.025642547756 -0.0048924377188 -0.025632187724 -0.015830246732 -0.0097942231223
          4.0572153921e-06 0.012812146917 -0.031681608409 0.0097877401859 0.025634052232 0.031686957926