<VTKFile type="UnstructuredGrid" version="1.0" byte_order="LittleEndian" header_type="UInt64">
  <UnstructuredGrid>
    <Piece NumberOfPoints="791" NumberOfCells="973">
      <PointData>
        <DataArray type="Float32" Name="ux" format="ascii" RangeMin="-0.95380061865" RangeMax="0.87510991096">
          0.33053582907 -0.039777331054 -0.043996099383 0.39502009749 -0.16610319912 -0.0024186570663
          0.084947057068 -0.065723411739 -0.028254482895 -0.062434587628 0.18675895035 0.042092584074
          0.015961840749 -0.058537442237 0.15012979507 -0.067984327674 -0.075573191047 -0.0058977124281
          0.12152481824 0.073096826673 -0.09775403887 -0.10633665323 0.13031545281 0.090752854943
          0.15769967437 0.13958568871 -0.14143137634 -0.15051080287 0.5188318491 -0.55137449503
          -0.18869279325 0.87510991096 -0.80952191353 -0.58034360409 -0.69417619705 0.23029762506
          -0.015685237944 0.14027330279 0.090586081147 0.011752519757 -0.049273241311 0.064249627292
          -0.23171745241 0.21888889372 0.36762726307 -0.51355189085 -0.37765139341 0.77019512653
          0.72123163939 0.08200122416 -0.01895772852 -0.27860200405 -0.21836054325 -0.18092748523
          -0.043203417212 -0.1279296279 -0.17492341995 -0.26015135646 -0.11113875359 -0.29807171226
          0.030473671854 -0.24175944924 -0.012938742526 0.20122095942 -0.20957021415 0.26324009895
          0.024684142321 0.31991508603 -0.033368900418 -0.1828455776 0.22531172633 0.029643611982
          -0.063484735787 0.041832435876 0.063447415829 -0.23227873445 -0.14136463404 0.31360706687
          0.58178198338 -0.26072749496 -0.39212077856 0.14282737672 0.42530015111 0.38444235921
          -0.085022389889 -0.50429368019 0.23469506204 -0.029104277492 0.016124172136 0.070553570986
          -0.048911951482 -0.0094565153122 0.14273454249 0.17735606432 0.21503560245 0.028561733663
          -0.20578175783 0.071093171835 -0.1223718375 0.0071356277913 -0.1075066328 -0.23685972393
          0.13154426217 -0.15546573699 0.11201246083 -0.11883358657 0.076467163861 0.44625630975
          0.33210560679 0.36461478472 0.26642501354 0.22431012988 0.098007448018 -0.33304914832
          -0.023528987542 -0.35390102863 -0.19463445246 0.18558640778 -0.031026026234 0.020344048738
          0.05741256848 0.13088215888 -0.10724693537 0.080037221313 -0.078622296453 0.074052557349
          0.008261853829 -0.013318923302 -0.1041668281 -0.072429947555 -0.28249064088 -0.27210977674
          0.0062668519095 -0.26049813628 -0.10705413669 0.024995429441 -0.071281500161 0.1306578517
          0.022745454684 -0.083803378046 -0.25277704 0.23555317521 -0.1567953676 -0.12553054094
          0.13075774908 0.21789138019 0.50593429804 0.24073666334 -0.056033618748 0.01675193198
          0.074762150645 0.008287393488 -0.1956256032 -0.068586081266 -0.11364050955 -0.050462786108
          -0.024113444611 0.062389224768 -0.053357161582 -0.00038020365173 0.41506484151 0.012581161223
          0.048262603581 -0.10921874642 -0.48022642732 0.20354792476 -0.064790353179 -0.27500805259
          -0.35034757853 -0.074800662696 -0.15653049946 0.19243590534 -0.1112594083 0.13065800071
          0.098465107381 0.24321989715 0.57818186283 0.060136109591 0.060460537672 -0.22065037489
          -0.47182029486 0.52803385258 0.02485861443 -0.40269717574 -0.4004959166 0.15942755342
          0.004900475964 0.060420788825 -0.29963669181 0.12940515578 -0.11982306093 0.25018087029
          -0.18441665173 -0.014923894778 -0.14665825665 -0.28448456526 0.23532293737 -0.28602808714
          -0.070350110531 -0.177364856 0.018172711134 -0.0347606875 -0.051547240466 0.10407139361
          0.033620301634 -0.16862487793 -0.32916897535 0.29914233088 -0.56758028269 0.029360642657
          -0.0042908778414 0.0058263856918 0.53864336014 -0.31716307998 0.026652799919 0.12094449997
          0.25453004241 -0.063971742988 0.0061473846436 -0.089419670403 0.48054146767 -0.15767720342
          0.35876107216 -0.15295696259 -0.073770135641 0.12414050102 0.36805257201 0.033757586032
          -0.28163588047 -0.32038104534 -0.017856948078 -0.026946274564 0.027520189062 -0.0084274588153
          0.02421107702 -0.19709716737 0.20447358489 -0.12307596207 0.21227867901 -0.12680460513
          0.10689368099 0.055820960552 0.24404142797 0.37003436685 -0.30784586072 0.17157176137
          0.032360687852 0.12797376513 -0.031306810677 0.040988370776 -0.12416858971 -0.27978387475
          -0.12910437584 -0.37033608556 0.16700339317 -0.051578402519 0.5717523694 0.080216310918
          -0.092298716307 -0.023210529238 -0.48632544279 0.25556859374 -0.12276402116 0.11029849201
          0.17608219385 0.14035664499 -0.19980479777 -0.36058074236 -0.34116977453 -0.021616363898
          -0.0076424535364 -0.2172691226 0.24541445076 0.34146752954 -0.0016084633535 -0.17152617872
          0.059938266873 -0.3427926302 -0.031544215977 -0.18943886459 -0.0091407997534 -0.1280002147
          -0.041110683233 0.0058280108497 0.22067803144 -0.2153699249 -0.20690464973 0.070534363389
          0.064072400331 0.30599549413 0.13053935766 0.27268871665 0.26941788197 0.35053747892
          0.10136964172 -0.12384977937 0.24880477786 -0.032785002142 0.11147900671 0.028790934011
          -0.101507999 0.2600274384 0.23086854815 -0.15306934714 -0.20623245835 0.067370526493
          0.14728872478 0.16131393611 0.26968640089 -0.29145520926 -0.0071431971155 -0.063489452004
          0.16686476767 -0.057600684464 0.075914017856 0.22288581729 0.035949349403 0.01646114327
          0.070917010307 0.076772034168 -0.02275900729 -0.14377450943 -0.24232383072 -0.27182778716
          0.18297664821 -0.21656040847 -0.17560851574 -0.10225462914 -0.026591278613 0.045728970319
          -0.017387919128 0.07768009603 0.07106629014 -0.040127370507 0.04734640941 -0.031709082425
          0.10945096612 -0.08416069299 -0.11923201382 -0.22564426064 -0.032127678394 0.00049801642308
          -0.10889045149 0.03268089518 -0.01469558198 0.088925153017 -0.052174776793 -0.093025416136
          0.35944950581 -0.43691504002 -0.45687568188 0.046136993915 -0.093697823584 0.044035244733
          -0.10188809037 0.20886577666 -0.098699465394 0.63256418705 -0.006517787464 -0.14891888201
          -0.21595089138 0.10371139646 0.011276926845 0.13073171675 0.091102153063 -0.15822011232
          0.027331667021 0.044821050018 0.0021800643299 0.043670143932 0.19009687006 -0.45788118243
          0.33560606837 0.18824671209 0.09671548754 0.17947894335 -0.37729147077 -0.43657872081
          -0.051497999579 0.16031892598 0.11449728161 0.062211066484 0.034616403282 -0.20452438295
          -0.11214400083 -0.13629928231 -0.021979533136 0.11344121397 0.12624293566 0.19746203721
          0.40293389559 0.27543336153 -0.08661929518 -0.039687354118 -0.26567873359 -0.17210075259
          -0.32668066025 -0.35759791732 -0.10939988494 -0.15076613426 0.13024799526 0.14163532853
          0.12102103978 -0.43917152286 0.43789219856 -0.0564247109 0.079173974693 -0.18218931556
          -0.14716054499 -0.060306817293 0.11040011048 0.47323349118 -0.13928206265 -0.095489650965
          -0.068195611238 0.023426722735 -0.062934160233 -0.0021722598467 -0.22484463453 -0.66474694014
          0.4167419672 0.30398005247 -0.32183483243 0.011166668497 0.0015661946964 -0.5030708313
          -0.098928764462 0.36095708609 -0.28793475032 -0.034110557288 0.10245394707 0.11598452181
          0.073387987912 0.062782250345 0.092990726233 -0.4732580483 0.25481495261 0.16007325053
          -0.14744023979 -0.31054285169 -0.025467824191 0.0092821530998 0.075003519654 0.51145803928
          -0.36101335287 -0.11136297137 0.020557763055 -0.22987110913 0.15861682594 0.088742017746
          0.22791446745 -0.065876707435 0.36738801003 0.015497813933 -0.084747716784 0.2142124325
          -0.043200828135 0.64111113548 0.033662728965 0.26975721121 -0.20946115255 -0.022488528863
          -0.068983122706 -0.30287277699 -0.065602697432 0.12678179145 -0.15338149667 0.054506853223
          -0.18920134008 0.096658490598 -0.054126478732 0.25885608792 -0.040339954197 0.12110107392
          -0.32949393988 -0.28362578154 -0.14536304772 -0.036690931767 -0.0066964812577 0.038613092154
          -0.0066527216695 0.026103228331 -0.020605111495 -0.17852251232 -0.12739926577 -0.10037624836
          -0.013911184855 -0.22449207306 0.038997486234 -0.023773079738 -0.20378404856 -0.3578466177
          0.042842686176 -0.076462648809 -0.099893845618 0.058107964694 -0.046659961343 -0.045033302158
          0.23454992473 -0.091312497854 0.11981893331 0.26780918241 0.18724621832 -0.53508639336
          -0.13001319766 0.29613339901 0.20703260601 -0.023696156219 0.097978003323 -0.057359643281
          -0.10307878256 0.043947763741 0.034125760198 -0.15850809216 0.16964158416 0.033878512681
          0.21805778146 0.344756037 0.12210152298 -0.15140485764 0.059687975794 0.30121099949
          0.2351603806 0.37318947911 0.12331181765 -0.011335861869 0.090851508081 -0.071252509952
          0.095804609358 0.095076262951 0.08631131053 0.070092633367 0.013937368058 0.21022309363
          0.25673744082 -0.11153288186 -0.063184022903 -0.0006484221085 -0.048438865691 -0.060388952494
          -0.0042051025666 -0.14008529484 0.071879662573 0.029458990321 0.044112071395 -0.0058061946183
          0.12655648589 -0.48384016752 0.46947357059 -0.11980900913 0.18244645 -0.12406327575
          0.11609828472 0.0077205346897 -0.049522284418 0.53952968121 -0.27378833294 0.027945198119
          -0.0076261088252 -0.033919576555 -0.19024583697 0.10590621084 0.13966450095 -0.27617457509
          0.22095604241 -0.26571375132 0.13204666972 0.11095775664 0.15282985568 -0.1399167031
          -0.09968355298 0.31938040257 -0.42953720689 -0.071063831449 -0.10717853159 0.071716427803
          -0.34354582429 0.10584117472 0.14156347513 0.054719112813 -0.2410249263 0.18048204482
          -0.0020869465079 -0.53621047735 -0.10505370051 -0.23064681888 0.14768382907 0.31543073058
          -0.18714272976 -0.27450549603 0.068313978612 0.0061295093037 0.016486728564 -0.087279744446
          -0.076835222542 0.24405090511 -0.10767707974 0.36016136408 -0.039323393255 -0.30766090751
          -0.39207628369 -0.22808712721 -0.042302686721 -0.2211342454 0.14858177304 -0.34915184975
          0.094355501235 -0.051429130137 0.086608283222 -0.20320302248 0.13758826256 0.12548029423
          -0.31583827734 0.044203396887 0.098564751446 -0.14724007249 -0.19908827543 0.081375643611
          0.08817075938 -0.16837200522 0.43824508786 -0.15755625069 0.2296423614 -0.0025977122132
          0.17230503261 -0.20364905894 0.1991648823 -0.41141718626 -0.017834784463 -0.71819859743
          0.00064065866172 -0.12633395195 0.13260781765 0.25573432446 0.24576601386 0.50750112534
          0.013135218993 0.08575552702 0.091652102768 0.018902495503 -0.18886239827 0.07946100831
          0.38945698738 -0.28291240335 0.036305129528 -0.95380061865 0.30708959699 -0.36118558049
          0.12129997462 0.11541489512 0.15490014851 0.61079984903 0.012288237922 0.015196078457
          -0.094492249191 -0.018161281943 -0.25335845351 0.10835446417 -0.024320891127 -0.25085607171
          -0.042227525264 0.037453886122 0.13564416766 -0.026060650125 -0.18796089292 -0.19946031272
          -0.083076134324 -0.014360863715 -0.083907827735 0.081497438252 0.082703262568 0.28160658479
          0.16967728734 -0.19037595391 -0.083132900298 0.026277583092 0.087760694325 0.32282033563
          -0.10531723499 -0.020327605307 0.026474706829 -0.01239597518 0.016817912459 0.22295312583
          -0.15250189602 0.12127266824 0.090065129101 0.096417367458 0.16582770646 0.026593932882
          0.10353016853 -0.22292469442 -0.08861053735 -0.53542083502 0.055752899498 0.29443717003
          0.083447821438 -0.038089629263 0.055533420295 0.34369388223 0.44276276231 -0.078124321997
          0.019019018859 0.00771237351 0.06328972429 -0.046978142112 -0.10578899086 -0.015623078682
          0.099487140775 0.31126561761 0.19304281473 0.095233879983 -0.040332552046 -0.24169270694
          -0.15424926579 -0.3023172617 -0.34682029486 -0.22345066071 -0.10512787104 -0.019870270044
          0.18252629042 0.39907291532 0.22110942006 0.092929087579 0.058408893645 0.34034866095
          0.0042150835507 -0.044006809592 -0.16413684189 0.19817653298 0.010114145465 -0.063219048083
          0.36776578426 0.070195063949 0.0091283190995 0.068271577358 -0.1855879873 -0.061339966953
          0.32152238488 -0.48082962632 -0.3409768939 -0.29177698493 0.035680975765 -0.29117959738
          -0.039972685277 0.57531380653 0.20276328921 0.55294847488 0.022797154263 -0.12982220948
          0.037380147725 0.30953660607 -0.43785008788 -0.30733409524 -0.40827828646 -0.16694118083
          -0.35431680083 -0.17337548733 -0.025225255638 0.27828428149 0.30174964666 -0.006679111626
          -0.18764138222 0.16308511794 -0.25186437368 -0.32064554095 -0.087699443102 -0.54814624786
          -0.17767830193 -0.36350211501 -0.27943980694 0.18698552251 0.39911416173 0.25414392352
          0.23554334044 0.26333460212 0.11650774628 0.20386186242 0 0
          0 0 0 0 0 0
          0 0 0 0 0
        </DataArray>
        <DataArray type="Float32" Name="uy" format="ascii" RangeMin="-1.1277002096" RangeMax="1.739477396">
          0.25393897295 0.072586603463 -0.0096617313102 0.77660530806 -0.23839001358 0.30063453317
          -0.31810191274 0.16428782046 -0.043630491942 -0.23097206652 1.1135954857 0.11342249811
          0.29339241982 -0.4740780592 0.21646077931 -0.29961392283 -0.076529249549 -0.36589205265
          -0.057719215751 0.3971619606 0.49615308642 -0.37770697474 -0.37757888436 0.021157868207
          0.39851036668 0.06412833184 -1.1277002096 0.24892622232 0.35150256753 -0.22165904939
          0.11519760638 0.32184079289 -0.31955009699 -0.039229918271 -0.38773205876 -0.038037132472
          0.069543503225 0.26335978508 -0.0018045461038 0.42629504204 0.35522904992 -0.22669200599
          0.6395097971 -0.090024098754 -0.12544336915 -0.17473505437 -0.45906972885 0.22450135648
          -0.17780843377 -0.16524659097 -0.31163534522 0.2735517323 0.036776535213 -0.081719957292
          -0.035636745393 0.34441894293 0.26665267348 -0.0023965483997 -0.20368440449 0.23920813203
          -0.19559326768 0.071968600154 0.6244853735 -0.14492741227 -0.19495464861 -0.014966739342
          0.39865377545 -0.16065768898 -0.38057985902 0.076384365559 0.015739530325 -0.04002911225
          -0.20680363476 -0.38722425699 0.28881263733 -0.15781652927 -0.23773491383 0.01756262593
          -0.31162032485 0.40660375357 -0.17440925539 -0.16692481935 0.29192921519 -0.15565310419
          -0.011438135058 -0.32104212046 -0.20096196234 -0.16573567688 -0.02692864649 -0.031583856791
          -0.031387701631 -0.024771392345 -0.44178751111 -0.086037136614 0.30325782299 0.10753335059
          0.22236804664 -0.054865006357 0.31926512718 0.065529800951 0.1707252115 -0.093994781375
          -0.34626659751 -0.10296605527 0.13718745112 0.18183501065 -0.060586474836 0.080599479377
          0.097662888467 0.03377655521 0.75348424911 -0.1350902319 -0.15973372757 0.16278272867
          0.64215546846 0.26285332441 -0.13373632729 0.74770063162 -0.35648465157 -0.07362113893
          0.0029831440188 0.062890738249 -0.0832387954 0.059552442282 0.021098870784 0.10200243443
          0.308578372 0.068312346935 -0.22678869963 -0.027260186151 0.26262652874 0.084794685245
          -0.15245145559 0.30686360598 -0.18088391423 -0.12471185625 0.039624322206 0.0090771643445
          -0.033496953547 -0.15395183861 -0.059261336923 0.18567422032 -0.094442054629 0.078288532794
          -0.32191646099 -0.098313488066 0.35104191303 -0.013138690032 -0.49337184429 0.034302573651
          -0.42844101787 -0.049731872976 -0.085693031549 -0.15455454588 -0.099102944136 -0.046272747219
          -0.013557557017 0.23160195351 0.00067991111428 -0.095733202994 0.023006873205 0.15439522266
          0.22846972942 0.13637599349 -0.40883630514 0.11371535808 -0.00076042348519 -0.020696213469
          -0.15729984641 -0.25974300504 0.051986843348 -0.12722347677 0.0952520594 0.20281237364
          -0.29180440307 0.00084572064225 -0.28620964289 0.014205209911 -0.44597113132 0.029792470858
          -0.37758651376 0.28176373243 0.25072783232 0.015720956028 -0.44697979093 -0.15966117382
          0.057596199214 -0.12791056931 -0.038602054119 0.23854719102 0.24918524921 -0.33736023307
          0.2040104419 0.21814511716 0.56524342299 0.15705467761 -0.29428648949 0.011088709347
          0.058109551668 0.22915256023 0.29189005494 -0.15229015052 0.34952896833 -0.10300886631
          0.14909495413 0.018099391833 0.35778418183 -0.33731907606 0.20634412766 0.062854610384
          0.45767003298 0.027516579255 -0.22212128341 -0.024681482464 -0.019145650789 0.21610295773
          0.34311687946 0.011656110175 0.02785053663 -0.14988258481 0.34389463067 -0.14949795604
          -0.38260045648 0.299510777 -0.52750343084 -0.42409586906 -0.28366285563 -0.35355880857
          -0.067656688392 -0.059238690883 -0.13070325553 -0.15118142962 0.051837291569 0.063168689609
          -0.34931775928 0.076145216823 0.28060573339 -0.047257818282 -0.094422250986 0.26677006483
          -0.2544850111 -0.22453276813 -0.30091401935 -0.23609724641 -0.023990564048 0.12983003259
          0.08939357847 -0.076597027481 -0.070088282228 0.078104451299 0.009048123844 0.15123511851
          0.41203817725 0.11761155725 -0.063146919012 0.19412650168 -0.13984808326 -0.002493269043
          -0.55175632238 -0.058551460505 0.32208734751 -0.057731609792 0.26694014668 -0.10186291486
          0.16633443534 0.19152589142 0.072264529765 0.1133826524 -0.088257178664 0.15974937379
          0.20149978995 0.19648596644 -0.093023076653 -0.13618697226 -0.057433146983 -0.037819616497
          0.094932474196 -0.21178594232 -0.18013192713 -0.081706613302 0.19161523879 0.13332411647
          0.21483069658 -0.12626798451 -0.060613434762 -0.15366022289 0.1635337323 -0.1807308495
          0.4635694921 -0.38418161869 -0.36541700363 -0.28006789088 -0.37511187792 -0.40036553144
          0.097420349717 0.015970395878 0.15949502587 0.1775084883 -0.2854309082 -0.14762583375
          -0.076301842928 -0.090088866651 0.10088606924 0.083305373788 0.48499381542 -0.16735285521
          -0.018290793523 -0.19707742333 0.36735036969 -0.32651859522 -0.027874343097 0.014008084312
          0.25178143382 0.22638268769 -0.13944450021 0.16941162944 0.04599814117 -0.0038021488581
          0.23138153553 -0.31101071835 0.10952406377 -0.048111915588 -0.024547258392 0.13568870723
          0.13412824273 0.1026134342 -0.068413764238 0.026548009366 0.13502664864 -0.056741010398
          0.16922165453 0.005900092423 0.08365188539 -0.043211888522 -0.16735382378 -0.032272107899
          -0.065476484597 0.068911708891 0.0063278428279 0.093345291913 -0.021840712056 0.2203874886
          -0.036998532712 0.069207988679 0.00062400422757 -0.037875138223 -0.0091576129198 -0.032451640815
          -0.22415730357 -0.062421329319 0.084131516516 -0.24726311862 0.23540663719 0.025977682322
          0.89101904631 0.077154867351 -0.7656441927 0.16063949466 -0.13787470758 -0.062268380076
          -0.2873519361 -0.17684778571 -0.14728707075 -0.062016963959 -0.085944108665 0.065939001739
          -0.20980094373 0.0053845224902 -0.12883281708 0.10352945328 0.48088315129 0.26588052511
          0.027729783207 0.12200384587 0.28010246158 -0.037254430354 0.26422435045 -0.12798766792
          0.086025834084 0.30380529165 -0.36779898405 -0.093452811241 0.054863579571 -0.23267783225
          -0.13962304592 -0.28366205096 -0.12303258479 -0.1366378814 0.22640796006 0.40738740563
          -0.42164853215 -0.33467206359 -0.10033855587 -0.020960768685 -0.024286862463 -0.094720505178
          0.36044752598 0.46055757999 0.10638459027 0.29236349463 0.084845922887 -0.060833547264
          0.10872548074 0.21011057496 -0.16653238237 -0.0488948524 0.18325164914 -0.11381409317
          0.048153612763 0.21011714637 0.040404055268 -0.34903040528 0.39710757136 -0.076762862504
          -0.021990383044 -0.085076160729 0.019699873403 -0.19517141581 0.15543945134 0.48139405251
          -0.13211216033 0.14381109178 -0.13085313141 0.10222538561 0.30947440863 0.29513579607
          0.30155950785 -0.44869884849 0.14378711581 0.14785480499 0.08150870353 -0.017801916227
          0.086949795485 -0.28909274936 -0.056902449578 0.02003721334 -0.12284198403 -0.10338531435
          -0.11409603804 0.11246353388 0.23598180711 0.564476192 0.042953658849 -0.18230065703
          -0.31569108367 -0.11203221232 -0.13856868446 0.00091979204444 -0.013966560364 -0.17221297324
          0.11511161178 -0.34348592162 -0.20322647691 0.19688020647 -0.31298232079 0.43193104863
          0.22941373289 0.92289483547 -0.015980569646 -0.24868810177 -0.0114957029 -0.14331974089
          -0.024163452908 0.016232367605 -0.13770486414 0.13863073289 -0.19216482341 -0.52738136053
          -0.082870140672 0.15460439026 -0.39756947756 0.43369683623 0.031954493374 0.048597406596
          0.052843336016 -0.19615642726 -0.090182118118 -0.024405170232 0.016759654507 -0.13089796901
          -0.2620549202 0.049132674932 -0.072194196284 -0.20932425559 -0.11979520321 0.048912324011
          -0.22441627085 -0.043183293194 -0.18606348336 -0.68649655581 -0.013364760205 0.23166383803
          -0.14046679437 0.31929916143 -0.12996116281 -0.073958866298 -0.16142614186 0.18116806448
          0.24912922084 0.054437465966 0.037161871791 0.10574439168 0.08411476016 -0.12435157597
          -0.045286953449 -0.47349631786 0.065431110561 0.46010643244 -0.12435860187 0.051662672311
          -0.13322089612 -0.16818751395 -0.051245830953 0.23069009185 0.10332161933 0.029898805544
          -0.16060929 -0.12022621185 -0.1373899281 0.23827756941 -0.098556309938 -0.30652314425
          0.13647155464 -0.033003214747 -0.24135015905 -0.0067141340114 -0.17617875338 0.15492913127
          -0.10481640697 -0.097901053727 0.0018789619207 0.29215791821 -0.036312408745 -0.44851052761
          -0.10305003077 0.65895485878 -0.22904899716 -0.25340214372 0.10898797959 -0.099398888648
          -0.47640562057 0.17016899586 -0.13024586439 0.23905625939 -0.21694846451 0.082701168954
          0.11291804165 0.80867409706 -0.016901593655 -0.45319607854 0.24357660115 0.15584945679
          -0.13383439183 -0.072590105236 0.053518060595 -0.1206041351 -0.17993268371 0.10941199213
          -0.20526511967 -0.024729533121 -0.19510807097 -0.13059034944 0.26711043715 0.53164631128
          0.033897414804 0.022636489943 0.26687693596 -0.20512415469 0.037288930267 0.41730219126
          0.051891479641 -0.072040177882 0.36700320244 0.042433604598 -0.16404111683 -0.3631760478
          -0.088626362383 0.040046367794 -0.14064946771 -0.070031225681 -0.033799998462 0.26020878553
          -0.14357616007 0.14637947083 0.14155061543 0.50880801678 0.2049215734 0.11397220194
          0.34505861998 -0.01699770987 -0.079600505531 -0.15943865478 -0.079774878919 0.15276606381
          -0.18678340316 -0.17047978938 0.046406529844 -0.038602806628 -0.26822048426 0.29103314877
          0.016831217334 0.25789389014 0.04139591381 -0.032255295664 -0.54986453056 -0.046424705535
          -0.15532582998 0.056597251445 -0.081088930368 0.17410716414 0.10385777801 -0.40401354432
          0.10439395159 0.30040076375 -0.26463654637 0.37596699595 -0.014842584729 0.039503958076
          0.13070870936 0.26577422023 -0.61832481623 -9.9821627373e-06 -0.23695150018 0.069931492209
          -0.11735796928 0.4454793036 0.15903115273 -0.23831875622 0.22038437426 -0.20415988564
          0.10073201358 -0.2356493026 0.055953290313 0.35190609097 0.27503979206 -0.0033614390995
          0.16136221588 -0.37985593081 0.040574613959 -0.027322571725 -0.15666881204 0.22572377324
          0.20044933259 -0.12861919403 0.15095862746 -0.40037074685 0.48253151774 -0.56251674891
          0.18315899372 0.50715279579 0.1720931381 0.14100831747 0.59848248959 -0.35416045785
          0.22280359268 -0.12232659757 -0.098698556423 0.35904699564 0.05530416593 -0.26415452361
          0.052343849093 -0.3097845614 0.067438624799 -0.39488008618 0.18028308451 0.2684918046
          -0.093393228948 -0.32311409712 0.25566002727 -0.23994903266 0.23429989815 -0.35751003027
          -0.081561662257 0.086150072515 -0.10485505313 -0.030375147238 -0.010323683731 -0.14055135846
          -0.1611186713 -0.12369006872 0.10166569799 -0.053683958948 -0.064643844962 -0.23206888139
          0.032286897302 0.075829796493 0.020402280614 -0.1286252588 -0.033097498119 -0.12542267144
          0.32822704315 0.069753207266 0.15201205015 0.045987267047 0.16429612041 -0.30760633945
          -0.21325667202 -0.092684842646 -0.1842532903 0.13199587166 -0.073956280947 -0.20320872962
          -0.066606275737 0.037851475179 -0.060805290937 0.17526507378 -0.12236316502 -0.34119215608
          -0.1113800779 -0.33230856061 0.1159863919 -0.18043483794 -0.044798709452 -0.51195341349
          -0.31127011776 0.025908172131 -0.014154788107 -0.053254622966 -0.17652124166 -0.43884849548
          0.049206361175 -0.28351673484 0.35843807459 -0.072118207812 0.028644552454 -0.50779759884
          0.28770881891 0.13430166245 0.32565262914 0.078266941011 -0.93718624115 -0.34770289063
          1.739477396 -0.038741763681 -1.0452358723 0.55233734846 0.17326241732 0.043694529682
          -0.041841208935 0.022502135485 -0.28253293037 -0.14425872266 -0.23162537813 -0.093654476106
          0.020536320284 0.13718765974 0.21126399934 -0.0357192792 -0.23316539824 -0.37718629837
          0.90368682146 0.036647450179 -0.19038532674 0.085510097444 0.079721882939 -0.14201793075
          0.40425059199 -0.1220985055 -0.80860036612 0.25559747219 0.060541655868 -0.75459486246
          -0.8547475934 0.51352274418 -0.23013047874 -0.49243411422 0.62028980255 -0.090769857168
          0.082886651158 -0.51157939434 -0.25226211548 -0.064315199852 -0.19950529933 -0.7349499464
          0.041601289064 -0.55154800415 -0.12403755635 -0.53365194798 0 0
          0 0 0 0 0 0
          0 0 0 0 0
        </DataArray>
        <DataArray type="Float32" Name="uz" format="ascii" RangeMin="-0.53795129061" RangeMax="0.52788645029">
          0.40344876051 -0.3552852273 -0.10249420255 -0.014644475654 0.040859781206 -0.28337782621
          0.22320427001 0.089299947023 -0.096307270229 0.12615475059 0.20480290055 0.044094078243
          -0.0082268649712 -0.030990084633 0.13891595602 0.21976898611 -0.067585654557 0.1002086401
          -0.059196602553 0.17192852497 -0.051490969956 -0.18263585865 -0.073208831251 -0.030698573217
          -0.055539231747 0.17321702838 0.26251998544 -0.07753585279 0.07012733072 0.053384028375
          -0.21600064635 -0.21911458671 0.17883045971 0.032778970897 -0.075573712587 -0.080894194543
          -0.20442561805 0.44139936566 0.14439558983 0.23484350741 0.19522202015 -0.1465933919
          -0.0054397541098 0.14197327197 -0.13884685934 0.17570902407 0.043800938874 0.25753813982
          0.077802300453 0.077640347183 0.037088707089 0.30945751071 0.22047506273 0.15194775164
          0.24296545982 0.059706922621 0.031829252839 0.1442501992 0.072173498571 -0.012406106107
          0.22819663584 0.11270081252 0.026565654203 -0.045163348317 0.36039730906 0.036860302091
          0.20667360723 0.20942491293 0.0069333738647 0.10624486953 -0.087156549096 0.19848427176
          -0.032121106982 -0.096315540373 0.13062620163 -0.095673009753 0.0031953586731 -0.050933115184
          -0.23911860585 -0.061011936516 -0.076469071209 -0.25452852249 -0.29920068383 -0.032057713717
          -0.27133870125 -0.26029077172 -0.13862298429 -0.012393371202 -0.15421028435 -0.24799150229
          -0.055655114353 -0.20309573412 -0.25379270315 -0.15734821558 -0.37472116947 -0.085409164429
          -0.33431023359 -0.14391906559 -0.13958480954 -0.17610020936 -0.14628881216 -0.40754196048
          -0.013414771296 -0.20831179619 -0.24869857728 -0.29521656036 -0.076581388712 -0.088222369552
          0.0052981665358 -0.019560785964 -0.096121840179 -0.067780427635 0.23798142374 0.19214172661
          0.19186154008 0.063504815102 0.078689664602 0.029050122947 0.08089607954 0.036886978894
          0.00019884301582 -0.10704363137 0.0023756232113 -0.068809233606 -0.28084632754 -0.095604367554
          -0.2402498126 0.012166677043 0.092461116612 0.29216882586 -0.024427575991 0.16651178896
          -0.17380622029 -0.0093037886545 0.065120048821 0.050904355943 -0.042192142457 -0.025069272146
          -0.10885468125 -0.0060989409685 -0.3564696908 -0.15637257695 -0.010044749826 0.067922174931
          0.0014883900294 0.19369737804 -0.11700407416 0.11251849681 -0.15024085343 -0.077964112163
          -0.029953099787 -0.092461824417 -0.074048295617 0.034255582839 -0.28540483117 0.046455979347
          0.019605640322 -0.086404904723 0.14325466752 0.14035108685 0.24180629849 0.30309838057
          0.33750972152 0.11502114683 0.25705781579 0.054365865886 0.13744673133 -0.08996514976
          -0.092257015407 0.079431213439 -0.055266205221 0.001540612895 0.14274162054 -0.086452119052
          0.092193089426 -0.011683149263 0.40156817436 0.26316022873 0.3083922863 0.080448098481
          0.1439832598 0.21227653325 0.12639115751 0.048134505749 0.03462575376 0.015873858705
          -0.045988652855 0.11026310176 0.21123124659 0.058870360255 -0.052335102111 -0.079482674599
          0.28096327186 0.025914549828 0.028521614149 0.14765675366 0.025350188836 0.097275853157
          -0.12916694582 0.10611573607 -0.080158427358 -0.25113603473 -0.13104224205 0.064690642059
          -0.010172205046 0.027706401423 0.056944068521 0.11425839365 -0.23486705124 -0.23754675686
          -0.32432225347 -0.017601028085 -0.1029150635 0.00061263027601 -0.20018842816 -0.045525543392