<VTKFile type="UnstructuredGrid" version="1.0" byte_order="LittleEndian" header_type="UInt64">
  <UnstructuredGrid>
    <Piece NumberOfPoints="791" NumberOfCells="973">
      <PointData>
        <DataArray type="Float32" Name="ux" format="ascii" RangeMin="-2573416448" RangeMax="2702388992">
          -177249264 248564048 -167915168 -779708352 -443743040 -569070272
          -979023808 -1003675392 220198592 128210808 -847776128 -537519808
          -1164963840 -539613824 34573684 -80597112 -253000816 319426144
          219923632 -469882176 -782827008 189439392 -380198816 -229975968
          177522096 -417123648 18764484 400743904 -313389632 227718912
          928972864 -68187016 1505191936 2013263104 2401556736 -33591768
          -168499472 222403568 -371503392 356364832 -238467888 475522496
          581352512 -811739840 -656786816 -64029976 -102849144 -1644695296
          -974512896 -496711040 214072240 1195564672 26156770 784958272
          -282482464 623634752 1152824064 198867088 474324576 307783808
          827361024 -546200000 -172016288 -428765472 1278097280 169275456
          -164098128 -77227448 -486397568 1548375040 -224897184 824175232
          -52816924 595111808 -35305032 -333651968 -934620288 -483522592
          -805588352 -184570416 379229728 -435727264 -1861360256 -87145624
          -229642144 450154496 -669130048 466472864 -167286848 -84176672
          -709832128 -295167488 -1641573248 -359488000 404947520 321374656
          -803419520 -689498112 -1043137600 116802864 -106799176 -1286014976
          -856493184 263065328 530486080 -366216480 -1071160832 -261701568
          -1613362816 -340590016 -1105881984 -274197920 186693232 812381824
          355740128 -43155308 -66406672 -1472502528 202169776 -176969984
          -216094544 -220098288 -124911888 -216444688 444299776 127322824
          -137807872 -469386112 1669843584 1062844544 945528128 -96268440
          -679320960 -1149942656 176515040 104930208 -516689952 -659016832
          341120128 474786464 872502016 -617367744 -171260768 196568384
          -1156664960 -642901312 -527537568 12749966 -741839040 -955062592
          -366468832 -431390912 -490994208 -528603136 175279184 91209816
          -211511104 -690812800 -2311476736 204308944 -2217267200 -756353088
          44086568 239527792 298729408 -692848896 -89818736 -370691872
          -369247040 -897366272 169501760 -224745344 801001216 -830092608
          -1577372416 -30129014 -682506368 77665032 876901760 489002016
          770071296 -426411584 -85511584 1018674496 285733280 -301986336
          -49867100 -146075584 1432414976 83481400 614456512 -498485728
          1708795264 601972224 881180032 -272683904 -822918080 645865856
          -283781344 648193728 499501216 116998344 575939136 -696445376
          1716121856 -1005245568 381233248 -977547648 1230293120 778472192
          -204108992 -597032192 -1393170944 -348989472 -301124000 251709088
          -108177504 -17318524 162227232 -163175360 -432831456 -538351168
          -1440088960 -71461640 -733626560 -174451616 -992744512 -240532288
          17653002 -163439392 -168747024 -717060416 -239098464 -460823072
          -229657200 945345216 -457504640 495315360 -419089344 -341854400
          -196682304 -1168632704 326597824 -856817984 509457600 -443690816
          -290584992 -379599840 174070032 230830608 -10253068 850066688
          1059697472 150138976 252849952 -35680592 498184768 -62885840
          -135791888 -492027392 -133273016 -306871072 61198076 -406638176
          -435659296 415842176 484797376 1082708992 1355604864 776915136
          724553536 895086144 464243584 263896784 482061536 36016356
          70564824 1133597952 522166848 -65185540 -724646528 588338048
          409268736 130956472 537526656 371636256 929736704 157736624
          474453280 151684208 405724864 10223385 -174237824 -732550784
          201289888 520297376 -603812288 121091112 108969536 99293672
          281652960 -169143872 -228173552 737484928 784905408 -116369320
          -629242624 -321592704 572582912 686484736 170269728 96624304
          241113904 -231674528 -125119736 -209359280 -524313920 68976664
          -203173408 338808928 -238583120 640843264 22716886 800809216
          967263936 66081432 237573632 205745856 180168480 -31214156
          -161237456 -390660672 -259332736 243037808 41107044 -227216080
          -640346432 756062656 193039232 762778560 524600704 -602839040
          -15236510 -106871512 -43503400 -437462176 -80211952 -296911968
          235035536 -743343360 573585856 -589080192 -1027421568 133406016
          -668205120 -360677440 -1036806272 -887103168 -160376096 -446422176
          -323471552 137119248 -284636832 -241595776 -134405168 230897264
          -888135872 -40113040 -28848658 -186554256 602959296 698540608
          -650344384 624167296 -969909632 4811728.5 -643980480 -314855872
          223724480 136831584 317510912 346512896 -359347616 1137530240
          -127900072 -626913600 -148245920 -1437677440 -215121760 -892190976
          -125684968 493641856 8793639 -302241920 425030272 -182620992
          -200148240 219630160 -44586376 562573440 -126877160 -361537824
          382568832 -122749696 -625464832 -743651200 -158194368 -258642656
          -514391136 -1057029952 -625462720 -389045792 1059920960 213189776
          186733440 -91147232 638403968 -451108256 133054640 1350676608
          -632787840 481278656 -240986224 -502099392 -71074560 1123424768
          852782784 -277837824 1017152704 -63891120 728569024 -342281760
          299784576 -429616928 -654365248 -416177920 465893376 1155910272
          -401133760 738285824 560824000 562149312 786288896 -392522784
          758201536 -58221380 537956480 62392620 123093112 19823956
          752763072 -51667460 -98458008 1182394112 599867520 -65886884
          -105874456 -634372224 -245349600 -374982016 589851136 -672243264
          973454656 610725632 1049794432 -436101888 870309312 997289984
          681097216 761833408 -6587545 -1372752640 -508775360 -235497040
          359926144 -929243008 351882272 -623485568 -462184352 -541339136
          72731784 -568630208 -6009120.5 1029713024 -91626360 1293354880
          -201836784 -502378112 -460924096 587164736 654408128 -267461488
          -830588608 -537930880 492133632 -80364136 3817342 31645448
          -39027340 241606480 -235441456 1348707072 76101536 1455233664
          439564160 1309936512 721719552 625554560 493598688 732458176
          1105196544 933627584 661516096 217682080 -163811584 2423664640
          -1141034112 1301488768 486725856 2246437376 489438400 918162304
          813660096 -941632576 894842112 579902592 273802592 915598592
          314668256 324080416 136410224 -629416000 112980136 163026240
          -689868928 -148788032 493920768 1104731136 864860224 616439808
          -1052098240 234700736 289997920 76010200 142955808 -237692224
          -514145088 -1157006592 -781326144 -396896832 -1176257664 -526111264
          -195558480 -187754336 178395216 4478716 -1384871808 -151528336
          866444864 364854208 226688560 -687937088 -851711744 -284233504
          -596920960 416865632 -494414560 1348317952 -385709152 -662651072
          -464257952 -2035435392 -220179984 -170663936 -564183552 330499904
          -653875520 -1005997056 -611805824 -1463144192 849027584 -275149760
          -255500512 1993193344 481632000 174147584 -762673216 -132030928
          -187283632 460363392 -474878432 762776512 -777336000 116364392
          -51298304 327774080 -196405200 -871357824 445968640 218046720
          649950016 -51069580 -326726368 -169997584 234188320 659377856
          -468514464 177351712 90435328 293776960 942089344 1960072576
          -259508128 180476048 840354944 902284544 12665029 -518395744
          -444049888 -1213598976 2418152704 -12101934 -530349856 -602666560
          791221568 -298085504 -37329792 2702388992 -886876672 969706496
          -1094362.125 -878588672 126056088 -1090550272 14728641 -1671019392
          1132604544 168830912 -496879360 -218184272 738840576 -505637760
          -559088576 2403544832 -1097841408 1172576256 -1053233792 -335523808
          -221094272 -805589568 -512377504 -2323629568 -272240000 155812896
          -370856480 168120416 329972896 -73792520 135133216 -82219904
          -116192464 983985088 -105511632 166506256 199741056 286552672
          -387213216 -1782270592 -48411116 -454412960 -227238240 -269236160
          148362672 -337867904 255100928 -353088576 -202433360 -5528377.5
          262106928 375940896 165110016 353274368 -325371424 -94977672
          -377546304 -357789792 78551888 135449344 -63365964 39874104
          -76710056 835394624 431571840 -349164960 -566376000 190905744
          453766176 523403072 644390592 -891462784 24475372 372959424
          112523656 -736537728 -868018944 272814752 972386112 507205920
          438289376 -567722560 406293280 231466496 -39410592 -111093600
          -618974784 58159696 -1900418816 -1526276736 -318712064 -1305141504
          -551627648 -1264512000 247028496 286062496 -513013216 -1066669568
          -458190944 111328064 -494850080 -2091715968 -2172129280 -1037667328
          -2573416448 -1384254720 -2022944256 250748560 43702800 -429211936
          -1401078272 83103672 397309696 367142656 -638112320 -1176989184
          -1423513728 -2034323840 -1279551104 -1363075328 339621600 -408397696
          140557088 -978230912 77895360 657732992 346509568 53665152
          534355744 -118295192 -767147008 -850126016 1012461248 63186920
          281911136 270053632 693074176 274418144 1328177664 1091970304
          379468064 1617939968 1809527552 532248320 -1611142784 -278636992
          -1011870656 -849109312 -116852008 1256706304 0 0
          0 0 0 0 0 0
          0 0 0 0 0
        </DataArray>
        <DataArray type="Float32" Name="uy" format="ascii" RangeMin="-3095117312" RangeMax="4251989760">
          396018656 352390528 122355360 1485150848 1260140800 -1061960128
          665549440 331420480 96896600 1332301440 257334704 -286009184
          -1661209600 1123239808 -45751832 738569792 272900512 -43028276
          -651474048 -1958980480 -351311200 615973376 859343488 195104288
          -545298368 -124501168 -442314752 200328800 341678528 608212800
          374422720 -596642880 583337728 793538944 155072496 413346496
          1075210112 -1210437248 1301473408 358966848 -608056704 514043680
          -11929300 709471744 484116672 848907520 1215526528 933171328
          1105963520 434611936 -541949824 244604640 228621872 409954912
          321701152 -324697376 888810176 -162053168 388835584 250608560
          1181699456 41608400 -818331968 160354832 181595312 638478464
          1260713984 364608032 -881971264 1366131968 -210917856 568119872
          -807589824 -233851984 -328540160 377157184 -391588864 -18609044
          642493568 -845778048 97646840 -49836616 112506520 -250119792
          -659550528 163034240 -357543360 -120113056 -458392288 -985744832
          60985980 -270564416 -916859776 98019480 178551232 -375301792
          -777803968 -252648240 -996523584 -326332320 -760996864 -1212808448
          -372193792 -182352192 406035360 -998539456 -805078272 -681538432
          -183061216 -505461344 -1713785600 347218720 -219578400 369519296
          -1906750336 170127664 95671928 -793915328 259317184 149560960
          -88595152 -392866912 -426123488 -491160160 -405806912 -346613664
          -838777664 28576356 -544204864 630057088 -571407104 219336720
          357287232 357016192 -54363560 249951088 -315832352 -466989056
          -8219938.5 330765920 899837696 -142490544 -112436184 201475376
          -131281504 407081856 -678695616 -197389104 955552768 222739296
          1014897792 -27614870 -424066720 450209728 -148514352 -170323648
          578065920 -386654304 -331398976 -646675328 -455246880 117134552
          -379053824 -611489664 235967104 -808125760 469186048 -98192984
          -731971776 -99745248 -501602112 522325120 495900864 -709309184
          26328460 -1224707328 -614876928 379570976 1786344832 -129957944
          61145360 -1013679488 -917298240 148209440 -91128552 -582191616
          71827776 211167856 562812352 -321493056 -157554304 409941664
          -834725120 229289776 368637248 -159836528 654111168 181941456
          -422541472 -268001424 -294848992 273595424 -146362464 119767368
          119927384 -177181328 -779549376 630855936 -1089694080 357392576
          1248231808 145826480 -899229376 918705344 -1143651584 4612025.5
          -504154016 -502524736 -264063168 361399776 661087616 391992192
          814307136 48338052 1636084736 645886976 601439232 378116864
          434955872 83711224 36025348 631883776 112323224 450530816
          320102304 589118784 2523740928 622180288 184640720 552482304
          1036721984 309566400 -1489529984 249603008 2304303616 -970777728
          1109493120 54439824 1191558272 1208816640 140308992 746260992
          651175168 -118500080 766364736 -9530371 55202980 -394900512
          -703358272 -18718082 433203072 306002848 550111552 -445950528
          162492560 385102272 108153912 -267743808 -1573694720 -393527552
          564241152 -1023369920 -405479040 213672336 747526464 340170880
          -891442944 2344605184 -723388352 678465664 -967836416 -527609248
          49315404 -174420752 -1464862720 -68763472 372588000 -125502984
          -1773353088 479735328 533633920 259612096 239233200 1873180544
          -891475392 333028160 -241181744 -439550592 215628368 412376128
          -1034023104 25703290 825012480 -688507072 -498121408 362864896
          -121817408 281126432 949917760 80231560 -33384602 149775696
          116277408 629541888 769096320 -42345520 -698083392 383445088
          591000192 -277950336 -878081408 -290675264 463549728 -544026752
          -860231616 -1049295680 -125457040 -506974368 -269935424 -98004632
          639294400 72890688 -759173632 369361696 114939432 50873336
          -391123296 -437628832 553052352 -568057344 -423651264 -1001894208
          -842324800 32424180 138782896 108298448 445514624 99821976
          312694304 -601572736 -1225161728 868797440 542304064 79500280
          452736032 -52556844 229290960 725425088 -635837312 507283232
          -78306656 525875648 -602052928 681441984 491311264 157359104
          604522816 875215872 364869664 -394197472 -454840416 -770910272
          114805624 -121567792 -820597696 -183513632 -248083264 182737312
          267682608 -199011056 501150752 129252192 654212608 692887104
          -48572504 1283540480 40809312 -30379908 459888128 -281351840
          -352041376 123458728 157222240 -200708528 367462304 755104576
          -7210055.5 -237312640 169766960 -548130304 126796976 170522736
          -58979568 586027904 495427296 1119821184 264848720 -535006848
          -556556032 -482075456 -200137312 -129864168 -47207740 149609152
          65078048 -535206432 -528136192 -13941524 -150553744 81931664
          209418752 1524885248 -224351968 739370496 -331114816 -639153856
          22054494 304224512 -382557024 816340736 -622990336 -267224608
          -407364224 424805600 -283027296 485526400 -323625152 703120064
          -407435200 -120116792 -205961408 -642092416 220511168 -95411648
          359887360 154424720 -238193024 337187936 176679680 -280258656
          -902953280 -719901632 -337801952 -1219444736 282003136 351206336
          -943816896 -1717909504 -293354336 460005120 -1260481664 327797344
          -308234496 310928416 219268208 -164739824 87618136 250282704
          -182391856 -357274528 269320416 847872960 3318170.25 -1418294144
          322093184 1762242816 -707508416 1214801920 209328816 1184714240
          698392512 152731776 560011264 231870512 87523496 374559744
          404694048 2127286016 135163552 458805952 595042048 960433280
          -496893120 -68054752 -159306192 1126422912 1531903744 334920512
          -120134144 -700926592 -206028672 -130758360 -202099504 -648083072
          -883998208 -722632960 -515851872 -857941504 -537353856 -801757248
          -880001152 -65792296 360935136 -384649408 -835307712 -1307276160
          121725952 433941440 -229449408 -696488768 -353898976 204567776
          -229464432 -588651968 1496789888 -1297306112 -275861088 -141259600
          67211960 -347994368 -214102624 -1237149184 -114447256 1345047808
          -1099907584 659258176 433500416 174724768 313176192 745853184
          2571311616 -137143456 886910208 -88017640 197704544 15381274
          -1040348224 -1923741184 -223555392 -197165472 -824144384 -46269740
          -452360032 -1886114304 -75295088 114680136 1238279040 -318449984
          895772864 -257059776 391216800 -403702240 -265761888 -430860576
          -61623980 972939968 -412954304 -497378656 -32587178 16075486
          -334224800 -95513952 639116800 349315392 218315872 -393212064
          345617920 207487360 223311296 223091088 -547758080 302568672
          -231719616 -787615552 -365886784 587794304 -456491712 -1878474240
          736133696 132037928 -467713184 -532551200 -528284320 -488342464
          159036832 -916428928 -422241216 -204754448 31608298 426885152
          550769984 -721481728 262716976 500274432 913718848 677474816
          681817408 750342592 514915616 -28897476 -357412704 -1267164032
          -87579384 -252594800 -46812840 373776544 269656448 -1114621056
          172478672 1864265600 -788463616 441705120 670548672 1456497536
          182287248 310869952 -220629168 -650631488 47505784 1321111552
          -997367232 -602887232 428540736 -2159280128 -240452608 1946636288
          -1076951936 1228461568 -395040832 368500096 -557725632 304400704
          -641357312 -697049792 541181888 2649204480 -1432980736 103726152
          -9402742 -7325318 -17780496 -973187456 -607504256 769380352
          -790280320 -72589616 -1179084416 136546352 -125935648 -115765368
          -85559552 2260050944 -1419746176 1576509824 -710767488 733794880
          21294576 -937965888 -669719104 1195595392 -1068386112 596417408
          -728442304 825695040 -6539745 -652300416 -192839328 -106578880
          -276754592 502348640 -174969120 491063968 44965968 -532277664
          107788808 -20870224 -38766900 -315950880 -312471168 438009568
          -102436560 -572371520 243735488 431023040 -1007448768 -76671080
          748981888 -233700752 548584960 1051152704 -927330752 245770192
          297226944 732704576 36392956 133368504 -500905152 702723328
          304511072 861454976 292420288 221647072 -49647656 1185156608
          -2492652544 1791791744 998286144 2291465984 -357523936 -647380288
          1542672512 4251989760 919187392 909006592 123222912 2069104512
          94606880 -919769664 30067936 1147508480 1267066880 300004544
          -135441824 1246006528 2998784000 104238624 -306692992 2152425728
          1179800192 -808596608 595882816 -830179200 144352016 -146970848
          -553865856 1074456576 -59640888 -284453888 -212420448 6817937
          3023527936 813428224 -1420931712 46362264 -1298274304 -956843776
          -2254469376 -296442944 -1383341.75 -913665920 -1908247168 580589184
          1755004544 -239314208 -1171580544 -78322424 129734656 -1440618496
          -796136640 1167979264 246938688 -449461216 -971832768 -3095117312
          1249917440 2846406656 -2443079424 328129760 0 0
          0 0 0 0 0 0
          0 0 0 0 0
        </DataArray>
        <DataArray type="Float32" Name="uz" format="ascii" RangeMin="-1888172800" RangeMax="1913319168">
          -352654976 1617512448 -287418432 50609964 163906608 883092608
          -1002456960 -25642646 280113760 727017728 130803256 -397717024
          1348552960 845006208 41416484 -560351616 345148064 -703819264
          -106775232 -1431810304 614938240 375056768 -44757612 -193766704
          205770352 -289235264 -553418496 728962816 132568600 96891624
          832883904 88147008 -254851568 865729536 409905920 651095872
          892740160 -287846720 -471342816 -854995712 -506126944 -400719712
          -1196526080 270499584 80577704 -174085760 -429728928 149712336
          -218793632 -525189760 -585537984 -19970992 -153529872 -232746064
          -214990976 157215632 60494508 -299481792 -531856224 274489984
          332991616 119269088 248691968 286863872 76425912 439449088
          602801344 106075640 287031168 -178280464 252809040 -378711456
          -264734832 239987008 402485632 -281697600 -618905984 -152198528
          -599699456 -227517440 251551424 613116352 232077200 139457792
          -93547200 -539468672 287459552 -195911584 202540480 -67934912
          4045955 -407000064 -928649792 -181515040 -421460128 -147735280
          642973696 597137600 115983744 398459456 131314192 703525632
          131635424 525660704 593729984 429314624 -232636768 437034880
          678614656 331280096 995205120 254434560 925025024 302211808
          681179776 337827808 944471104 1368674304 60184832 672213632
          471384864 640789248 166366400 678954752 1913319168 582879040
          1694049920 380448960 713257920 -38726368 1147186432 -126925704
          1304536192 1195556736 258116416 202361424 336426368 663465728
          837324416 403330272 1192372736 152246896 1041435968 432859328
          227136960 227475584 932159936 -206553600 398880672 504837120
          536070336 -103047080 207882224 596141888 825920832 478413696
          153118320 151730352 270327904 215395440 -475942656 -345431232
          -807475648 -281943264 -648359232 87353368 96133752 362153152
          433779008 332992768 128779480 -11555245 114859808 256911472
          -212244688 -201776016 -678508224 -606533504 -338870240 -460866464
          -599859008 -603924672 69219368 -164654464 90209152 -176522656
          426247840 -537605568 -173411568 -189471584 -461035584 -365051904
          242291232 -130935960 157548288 -276059232 -292724032 -38351252
          336545440 199364288 144306192 -188843488 557819840 -126489808
          229218832 -120720616 143552992 -85693592 744774080 279321344
          747172992 -76884672 352447552 90430400 297720032 167170800
          46087568 -195590736 175871344 -592263488 40513768 -240046976
          -505966176 -493119808 394822048 -43283712 724622144 -41303896
          380712128 -283332128 82495008 83390912 -161355520 -750889408
          5242412.5 -325244640 322307392 28385224 76704416 -120951240
          -163886752 -767532672 -352753952 -430067488 -86868656 -366096256
          -193956240 -190326608 -187701312 -389848576 38399780 -221195856
          249734992 118460416 -151888128 -266504672 125623568 -623414528
          -652942656 -147143664 -67332432 153932288 -260848800 319289696
          106707688 -154995504 137823264 143053280 364956320 219941328
          -40972616 -15300620 102856760 -201418096 -197124432 21881990
          -7175627 126245848 -26728912 242401952 94943808 -19673090
          191354432 106674888 273669888 204194752 290448704 6439777
          83002064 -151252800 294995008 87935568 -235748592 582080832
          41214836 410558496 316523840 236437488 345829568 492698944
          1348331136 279366752 834075968 151754080 929970176 548718208
          1487223424 127542752 847704320 539456640 679300992 199087856
          161081312 -7729613 702433984 421675200 1137002624 305479456
          840530880 300929408 -462052704 -207185376 666231488 -487814624
          367845920 -66156312 294081920 -593010560 -149326800 51585272
          557347328 160677008 503691808 215084160 453551712 195362608
          -577883072 -504194368 -142573440 -310774560 239305568 125640240
          -226170448 -256810480 -72390056 204914816 178097584 1412320128
          -786140544 1111745408 1283696128 1250314112 444009376 -323161376
          -662164672 -436148672 58818220 -189292624 -461276224 -132735624
          45301332 389018976 -609445824 -118281592 99156872 225375072
          290135072 -654427712 5137694.5 215743840 392035552 1233529472
          -114642168 34191256 447284384 -23001126 -113068696 -551805952
          504525440 -53170740 57685668 483894944 673905664 187201184
          16642263 33322730 259152080 83830552 535884288 128617912
          69785840 -104638480 579153536 -53737948 -234391056 -59634860
          -533445184 -281753472 99591416 -437591136 692347136 119737968
          -693456640 -874384704 -439149568 -455476992 -532599616 482345248
          -134267168 -92400720 -167858496 171476672 625218688 -257635200
          205153088 310634944 -252804784 -696985536 63816676 -30960284
          -15774885 393749280 -129977896 867273536 333615008 24614980
          173480704 794358592 674056448 -55742132 342651904 273710720
          205900016 -326212864 -115649032 -211867136 -130873448 -36773008
          -189649312 679586624 339626016 43312624 341139232 273390880
          -251548512 -718082.0625 36936728 -178988720 -110380168 -173464496
          -58206608 -312431872 -228531184 49716472 63796884 724473344
          253173264 284176288 386284576 40289764 91517536 111605016
          324775168 59183228 13638293 -159960576 547932864 59163772
          -32382734 570968448 301413856 -317692256 -460209088 -800606656
          -298085856 188197696 -281842240 -215821584 -225221392 -213936320
          77520320 -420386784 359626720 232082128 30144096 891847424
          272012064 -226392896 -146132672 21528802 -221053680 383492320
          -250159552 -59126628 -564982016 -177364736 36843388 -144379232
          49498400 -786016512 -197153056 411938272 48436056 -861898368
          -619386624 -1032858880 -607119680 -584905792 -632395968 -348979264
          -415090464 -34226924 -56880860 -564018688 431286144 -104933232
          334507744 345144032 -109839320 -75232120 -341191584 -489767744
          -29936586 110559520 -147946528 -304279296 485775680 440855552
          -69481336 -83505488 -718672896 -972451072 -312442528 -826844544
          -549660864 397950976 152150432 87783680 205494704 84245752
          397026688 -8329462.5 446696128 342746976 -16049188 -128891344
          -540512704 -735141760 -286898752 335686400 -79884808 455050080
          466791488 707618560 104047120 398731968 251461264 328117792
          218745824 163863712 327416128 87264920 -220701296 252481376
          -104892440 369621280 -35864184 740144320 795550016 1047938112
          9197872 -5116205 -363061856 655843072 -299313792 -196866336
          -115389336 328554848 -866700928 -661224128 -362150080 -912816960
          -407913344 -198051024 -25571710 -92795456 -173345360 -425549024
          -812143232 104090320 -541405824 -360341728 -469484608 -50040452
          -537778304 -926797696 -404535904 -506480160 -220166000 -299793952
          -655854336 -987674688 92473520 -623823616 40163888 -754580032
          97526968 -71489624 -327202432 -871833024 -235380256 -864361472
          -445360064 -264665984 208286752 -403465440 -536270208 -1440509056
          68960088 -161007344 -492573120 -608965056 59675404 -128790952
          -45506552 -776476864 326207552 189954304 168713984 530204224
          307553568 -868148096 -812282176 -1417981440 -251358000 -242492192
          -461882176 -701995904 -315329024 -163461488 286745856 -174799984
          884818496 1020223680 355707104 1529026432 370572736 29301352
          -453757728 -888605120 -334454752 255764544 579900480 -441190560
          -153939264 398124576 599600128 -290066944 400284032 -162459024
          308902528 687319680 -206776688 275196512 -414605216 -428252288
          -29781124 323071872 380115232 -382225152 350379136 323066016
          162735776 -343253632 -175918688 -498408320 -57925344 -414674944
          -143665936 -285385440 -324396960 -447523104 -140565744 -290584480
          -172455648 -114240168 69625672 239791.28125 -78019336 -124108864
          -1350559360 -583666240 -598375104 -438161376 -291937472 -372316992
          363950784 -437332928 375913120 -491522272 684404480 420006304
          -275576704 -260871568 441595264 -173418304 -590351936 379055072
          293687200 -538082432 147617904 -655491200 -339383136 -295604128
          51947512 -491537120 -342298080 -120612536 11188469 -838773888
          -556409856 -1244871040 -1602839936 -1398392832 277190560 -283304896
          74825144 -332920384 -381858048 -672253632 -159111456 407271808
          414466752 -544418624 -160080672 -900581888 -343611456 -154680944
          690318592 559672640 -297704416 493594464 58741152 538431104
          471925152 1587190656 -388393472 277579776 -181864704 594247552
          -499555136 1002932928 -875492672 -373512192 -1443551488 -890987200
          -1160071808 -36320448 -392300512 -517262208 -103563496 -374034272
          -236833888 670267840 -151333200 -1190828800 -300381760 -1888172800
          -393853984 -588205632 941835968 796443328 426840640 490922048
          175742800 -321553728 224485120 278598592 0 0
          0 0 0 0 0 0
          0 0 0 0 0
        </DataArray>
      </PointData>
      <CellData>
      </CellData>
      <Points>
        <DataArray type="Float32" Name="Points" NumberOfComponents="3" format="ascii" RangeMin="0.46622588233" RangeMax="7.6521325117">
          -0.19021129608 -0.061803411692 -0.86620301008 -0.17591033876 0.034764420241 -0.76195138693
          -0.16671703756 -0.091014400125 -0.72213083506 0 -0.076892651618 -0.88645333052
          0.19021129608 -0.061803411692 -0.86620301008 0.16671703756 -0.091014400125 -0.72213083506
          0.17591033876 0.034764420241 -0.76195138693 -0.19021129608 0.061803411692 -0.86620301008
          -0.18159212172 0.19999980927 -0.78656190634 -0.1175570786 0.16180337965 -0.84761428833
          0 0.076892651618 -0.88645333052 0.18159212172 0.19999980927 -0.78656190634
          0.19021131098 0.061803396791 -0.86620301008 0.1175570488 0.16180339456 -0.84761428833