<VTKFile type="UnstructuredGrid" version="1.0" byte_order="LittleEndian" header_type="UInt64">
  <UnstructuredGrid>
    <Piece NumberOfPoints="791" NumberOfCells="973">
      <PointData>
        <DataArray type="Float32" Name="ux" format="ascii" RangeMin="-0.76917284727" RangeMax="1.0934813023">
          -0.41513440013 -0.43972674012 -0.44901791215 -0.41007786989 -0.41513335705 -0.44901967049
          -0.43972781301 -0.41512879729 -0.43420004845 -0.41943737864 -0.41006675363 -0.43420261145
          -0.41513070464 -0.41944497824 -0.4341006279 -0.41939172149 -0.43409770727 -0.4193815887
          -0.46397012472 -0.4326454103 -0.46396791935 -0.46403840184 -0.4640404582 -0.46396023035
          -0.43258193135 -0.46396151185 -0.40676856041 -0.66992563009 -0.67045849562 -0.66994333267
          -0.60285192728 -0.60295778513 -0.60288524628 -0.67064386606 -0.60302519798 -0.67068076134
          -0.60323804617 -0.67047601938 -0.67080742121 -0.67082738876 -0.60268759727 -0.60285657644
          -0.60306799412 -0.67001563311 -0.60214543343 -0.67063242197 -0.60291725397 -0.67065924406
          -0.60284852982 -0.6712860465 -0.60343766212 -0.66999149323 -0.60213983059 -0.67073750496
          -0.60279178619 -0.67116433382 -0.60331898928 -0.67075163126 -0.60331058502 -0.72147589922
          -0.722001791 -0.72149664164 -0.72220546007 -0.72230422497 -0.72196507454 -0.7223136425
          -0.72238522768 -0.72140669823 -0.7221673131 -0.722181499 -0.7229064703 -0.72138899565
          -0.72224509716 -0.72278249264 -0.72237318754 -0.7545260787 -0.75511753559 -0.75454413891
          -0.75534230471 -0.75543731451 -0.75508403778 -0.75546896458 -0.75553739071 -0.75448381901
          -0.75530177355 -0.75532215834 -0.75610333681 -0.75446528196 -0.75540143251 -0.75597602129
          -0.75550580025 -0.76750558615 -0.76812773943 -0.76752370596 -0.76836884022 -0.76847207546
          -0.76809930801 -0.76850306988 -0.76857471466 -0.76746445894 -0.76832699776 -0.76835131645
          -0.76917183399 -0.7674471736 -0.76843595505 -0.76904296875 -0.76854002476 -0.75926065445
          -0.75990110636 -0.75927829742 -0.76014941931 -0.76025444269 -0.75987333059 -0.7602879405
          -0.76036012173 -0.75922316313 -0.76010632515 -0.76013243198 -0.76097267866 -0.75920593739
          -0.76022100449 -0.76084262133 -0.76032233238 -0.72922456264 -0.72986608744 -0.72924238443
          -0.73011481762 -0.73021942377 -0.72984051704 -0.73025548458 -0.73032647371 -0.72919106483
          -0.73007255793 -0.7300992012 -0.73093920946 -0.72917383909 -0.73018831015 -0.73080891371
          -0.73028749228 -0.67739486694 -0.67802190781 -0.67741310596 -0.67826402187 -0.67836499214
          -0.67799824476 -0.67840415239 -0.67847210169 -0.67736572027 -0.67822372913 -0.67824959755
          -0.67907047272 -0.6773480773 -0.67833638191 -0.6789405942 -0.6784337163 -0.60431116819
          -0.60490912199 -0.60433018208 -0.60513806343 -0.60523283482 -0.6048874259 -0.60527533293
          -0.60533863306 -0.60428667068 -0.60510104895 -0.6051248312 -0.60590904951 -0.60426825285
          -0.60520660877 -0.60578024387 -0.60530245304 -0.51101666689 -0.51157253981 -0.51103669405
          -0.51178258657 -0.51186865568 -0.51155287027 -0.51191484928 -0.51197206974 -0.51099717617
          -0.51174998283 -0.51177054644 -0.51250243187 -0.51097768545 -0.51184481382 -0.51237529516
          -0.5119395256 -0.39900395274 -0.39950677752 -0.399025172 -0.39969292283 -0.39976838231
          -0.39948901534 -0.39981839061 -0.39986824989 -0.39898958802 -0.39966571331 -0.39968210459
          -0.40034839511 -0.3989688158 -0.39974692464 -0.40022349358 -0.39984059334 -0.27014514804
          -0.27058634162 -0.2701677978 -0.27074486017 -0.2708080709 -0.27057057619 -0.27086210251
          -0.27090367675 -0.27013617754 -0.27072376013 -0.27073523402 -0.27132558823 -0.27011391521
          -0.27078896761 -0.2712033391 -0.27088186145 -0.12660902739 -0.12698277831 -0.12663319707
          -0.12711107731 -0.1271609515 -0.12696897984 -0.12721915543 -0.12725175917 -0.12660552561
          -0.12709656358 -0.12710264325 -0.12761004269 -0.12658166885 -0.12714421749 -0.12749074399
          -0.12723641098 0.029235156253 0.028931539506 0.029209438711 0.028834637254 0.028798548505
          0.02894337289 0.02873624675 0.028712870553 0.029233163223 0.028842341155 0.028841869906
          0.028420748189 0.029258618131 0.028812913224 0.028536835685 0.028721461073 0.19492441416
          0.19469030201 0.19489720464 0.19462445378 0.19460199773 0.19470016658 0.19453568757
          0.19452145696 0.19491696358 0.19462542236 0.19463048875 0.1942948997 0.19494397938
          0.19461399317 0.19440770149 0.19452337921 0.36801812053 0.36784929037 0.3679894805
          0.36781257391 0.36780297756 0.36785715818 0.36773273349 0.36772716045 0.36800530553
          0.36780717969 0.36781740189 0.3675622046 0.36803376675 0.36781257391 0.36767193675
          0.36772289872 0.54622113705 0.54610955715 0.54619121552 0.54609847069 0.54610019922
          0.54611545801 0.54602617025 0.54602843523 0.54620307684 0.54608738422 0.54610210657
          0.5459176302 0.54623287916 0.54610747099 0.54602468014 0.54601883888 0.72751295567
          0.72744685411 0.72748208046 0.72745603323 0.72746694088 0.72745078802 0.72738939524
          0.72739803791 0.72749000788 0.727440238 0.72745841742 0.72733032703 0.72752088308
          0.72747176886 0.72743529081 0.72738444805 0.91027963161 0.91024327278 0.91024804115
          0.91026580334 0.91028296947 0.91024512053 0.91020208597 0.91021567583 0.91025173664
          0.91024684906 0.91026693583 0.91017645597 0.9102833271 0.91028523445 0.91028004885
          0.910199821 1.0934511423 1.0934250355 1.0934194326 1.093452096 1.0934716463
          1.0934257507 1.0933889151 1.0934044123 1.0934207439 1.0934317112 1.0934524536
          1.093375206 1.0934524536 1.0934724808 1.093478322 1.0933881998 -0.48981443048
          -0.50383973122 -0.48985558748 -0.50921010971 -0.50059992075 -0.53182351589 -0.53522998095
          -0.51793694496 -0.54559570551 -0.51785713434 -0.52651160955 -0.51812165976 -0.54559022188
          -0.53516119719 -0.51801174879 -0.50067836046 -0.48776197433 -0.49356338382 -0.51162785292
          -0.46389663219 -0.47868320346 -0.5115672946 -0.49349817634 -0.60285317898 -0.60295832157
          -0.6028855443 -0.66992712021 -0.67045944929 -0.66994410753 -0.60302639008 -0.67064553499
          -0.60324001312 -0.6706828475 -0.60268819332 -0.60285645723 -0.60306823254 -0.67047703266
          -0.67080765963 -0.67082792521 -0.60214585066 -0.67001646757 -0.60291796923 -0.67063361406
          -0.60284972191 -0.67066091299 -0.60343706608 -0.6712860465 -0.60214090347 -0.66999298334
          -0.60279339552 -0.67073959112 -0.60332095623 -0.6711666584 -0.60331022739 -0.67075181007
          -0.72147780657 -0.7220031023 -0.72149783373 -0.72220748663 -0.72230672836 -0.72196644545
          -0.72231423855 -0.72238618135 -0.72140789032 -0.72216886282 -0.72218352556 -0.72290682793
          -0.72139084339 -0.72224754095 -0.72278523445 -0.72237372398 -0.75452828407 -0.75511926413
          -0.75454562902 -0.75534468889 -0.75544017553 -0.75508576632 -0.75546991825 -0.75553870201
          -0.75448536873 -0.75530362129 -0.75532448292 -0.75610411167 -0.75446748734 -0.75540417433
          -0.75597900152 -0.75550669432 -0.76750808954 -0.76812970638 -0.76752543449 -0.76837140322
          -0.7684751749 -0.76810127497 -0.76850432158 -0.76857626438 -0.76746624708 -0.76832908392
          -0.76835387945 -0.76917284727 -0.76744955778 -0.76843893528 -0.7690461874 -0.76854121685
          -0.75926333666 -0.75990331173 -0.75928026438 -0.76015216112 -0.76025772095 -0.75987547636
          -0.76028937101 -0.76036190987 -0.75922513008 -0.76010864973 -0.7601351738 -0.76097387075
          -0.75920861959 -0.76022416353 -0.76084601879 -0.76032370329 -0.72922742367 -0.72986835241
          -0.7292445302 -0.73011779785 -0.73022282124 -0.72984284163 -0.73025715351 -0.73032838106
          -0.72919327021 -0.73007500172 -0.73010212183 -0.73094058037 -0.72917664051 -0.73019164801
          -0.73081248999 -0.730289042 -0.67739790678 -0.6780243516 -0.67741531134 -0.67826712132
          -0.67836862803 -0.67800068855 -0.67840582132 -0.67847412825 -0.67736804485 -0.67822635174
          -0.67825269699 -0.67907190323 -0.67735105753 -0.67833989859 -0.67894440889 -0.67843532562
          -0.60431414843 -0.60491150618 -0.60433232784 -0.60514116287 -0.6052364707 -0.60488981009
          -0.60527688265 -0.60534060001 -0.60428887606 -0.60510367155 -0.60512793064 -0.60591036081
          -0.60427117348 -0.60521018505 -0.60578411818 -0.60530394316 -0.51101946831 -0.51157462597
          -0.51103854179 -0.5117854476 -0.51187217236 -0.51155495644 -0.51191610098 -0.51197367907
          -0.51099908352 -0.51175230742 -0.51177340746 -0.51250338554 -0.51098036766 -0.51184821129
          -0.51237899065 -0.51194065809 -0.39900618792 -0.39950829744 -0.3990264833 -0.39969530702
          -0.39977139235 -0.39949056506 -0.39981901646 -0.39986929297 -0.39899092913 -0.39966750145
          -0.39968445897 -0.40034872293 -0.39897102118 -0.39974981546 -0.40022674203 -0.39984115958
          -0.27014666796 -0.27058711648 -0.27016830444 -0.2707464993 -0.27081036568 -0.27057135105
          -0.27086186409 -0.27090388536 -0.27013668418 -0.2707247436 -0.27073687315 -0.27132502198
          -0.27011537552 -0.27079120278 -0.2712059021 -0.27088156343 -0.12660963833 -0.1269826442
          -0.12663279474 -0.12711183727 -0.12716238201 -0.12696884573 -0.12721797824 -0.12725105882
          -0.12660513818 -0.12709666789 -0.12710340321 -0.12760853767 -0.1265822649 -0.1271456182
          -0.12749247253 -0.12723520398 0.029235480353 0.028932601213 0.029210746288 0.028834819794
          0.028798086569 0.028944425285 0.028738312423 0.028714468703 0.02923444286 0.028843158856
          0.028842059895 0.028423132375 0.029258958995 0.028812484816 0.028536096215 0.028723558411
          0.19492560625 0.19469219446 0.1948993206 0.19462551177 0.19460245967 0.19470204413
          0.19453853369 0.19452385604 0.19491906464 0.19462709129 0.19463154674 0.19429804385
          0.19494518638 0.19461447001 0.19440788031 0.19452625513 0.36801999807 0.36785182357
          0.36799225211 0.36781433225 0.36780413985 0.36785969138 0.36773616076 0.36773020029
          0.36800801754 0.36780950427 0.36781916022 0.36756592989 0.3680356741 0.367813766
          0.36767286062 0.36772635579 0.54622358084 0.54611265659 0.54619449377 0.54610079527
          0.54610198736 0.54611855745 0.54603016376 0.54603201151 0.54620635509 0.54609030485
          0.54610443115 0.54592186213 0.54623532295 0.54610925913 0.54602622986 0.54602283239
          0.7275159359 0.72745043039 0.72748583555 0.72745883465 0.72746920586 0.7274543643
          0.72739380598 0.72740209103 0.72749376297 0.72744363546 0.72746127844 0.7273350358
          0.72752380371 0.72747409344 0.72743731737 0.7273889184 0.91028308868 0.9102473259
          0.91025233269 0.9102691412 0.91028571129 0.91024917364 0.91020703316 0.91022020578
          0.91025602818 0.91025066376 0.91027027369 0.91018164158 0.91028678417 0.91028803587
          0.91028255224 0.91020476818 1.0934550762 1.0934296846 1.0934243202 1.0934559107
          1.093474865 1.0934302807 1.0933943987 1.0934095383 1.0934255123 1.0934361219
          1.0934562683 1.093380928 1.0934563875 1.0934756994 1.0934813023 1.0933935642
          -0.48981431127 -0.50383985043 -0.48985567689 -0.50921082497 -0.50059998035 -0.53182369471
          -0.53522962332 -0.51793634892 -0.54559582472 -0.51785743237 -0.52651226521 -0.51812154055
          -0.54559087753 -0.53516221046 -0.51801252365 -0.50067824125 -0.48776215315 -0.49356329441
          -0.51162791252 -0.46389636397 -0.47868302464 -0.51156747341 -0.49349862337 -0.30118635297
          -0.30119994283 -0.30118823051 -0.30129802227 -0.30116415024 -0.30129760504 -0.30117177963
          -0.30128410459 -0.30114600062 -0.30116614699 -0.30116868019 -0.30117249489 -0.3012842536
          -0.2017442733 -0.20158493519 -0.20174385607 -0.20233757794 -0.20174914598 -0.20233763754
          -0.20178343356 -0.20233125985 -0.20174145699 -0.20172397792 -0.20172341168 -0.20156060159
          -0.20233127475 -0.11725754291 -0.11704333127 -0.11725767702 -0.11814209074 -0.11724986136
          -0.11814206094 -0.11730390787 -0.11813674122 -0.11724318564 -0.11724448949 -0.1172446534
          -0.11702701449 -0.11813674867 -0.053297840059 -0.053027614951 -0.053297881037 -0.054389294237
          -0.053316317499 -0.054389256984 -0.053396072239 -0.054386042058 -0.053312312812 -0.053289227188
          -0.05328925699 -0.053017031401 -0.054386075586 -0.013545763679 -0.013145267963 -0.013545857742
          -0.015189887956 -0.013483413495 -0.015189839527 -0.013560454361 -0.015188254416 -0.013481427915
          -0.013541671447 -0.013541765511 -0.013140213676 -0.015188300051 0 0
          0 0 0 0 0 0
          0 0 0 0 0
        </DataArray>
        <DataArray type="Float32" Name="uy" format="ascii" RangeMin="-0.0012418548577" RangeMax="0.0012427949114">
          4.2152089009e-05 -4.3306252337e-05 6.0180180299e-05 1.0582165487e-05 -1.6397134459e-05 -3.4163855162e-05
          6.8881985499e-05 -7.0919340942e-05 -0.0002521884162 -6.4155938162e-05 1.079705271e-05 0.00027826792211
          9.6565359854e-05 8.8576300186e-05 0.0002282987698 6.7286251578e-05 -0.00020239758305 -4.2983974708e-05
          -7.3073540989e-05 1.2883686395e-05 9.9762495665e-05 -0.00010155755444 0.00012831186177 -4.5731732826e-05
          1.3020006918e-05 7.2349183029e-05 1.0564162949e-05 -0.00013483394287 0.0003276039497 0.00064271379961
          -3.2945714338e-05 0.00027302076342 0.00049929885427 5.483676432e-05 0.0001143115951 -0.0003952770785
          -0.0002082354622 6.0655074776e-05 -0.00050924241077 0.00018138955056 6.0943202698e-05 -0.00040589424316
          0.00012458495621 -0.00026952274493 -0.00021148136875 0.00020106729062 0.00018610942061 0.00038186347228
          0.0003526902874 0.0001576719078 0.00011191334488 0.00056919874623 0.00047249518684 0.00087096757488
          0.00073359569069 0.00024227508402 0.00026969303144 0.00083810306387 0.00062477041502 -0.00018116255524
          0.00035730676609 0.00071366329212 3.8019050407e-05 -0.00048069216427 5.9887515818e-05 -0.00057023053523
          0.00019676319789 -0.000305293157 0.00021321651002 0.00041393557331 0.00018069283396 0.00062533619348
          0.00095731357578 0.00024594014394 0.00094612198882 -0.00021353838383 0.00037521639024 0.00076257286128
          2.8189600926e-05 -0.00054038420785 5.5381071434e-05 -0.00063221267192 0.00020383749506 -0.00034220516682
          0.0002205313358 0.00044000108028 0.00018676242325 0.00067615910666 0.0010358206928 0.00025362410815
          0.0010184294078 -0.00024039772688 0.00038600122207 0.00079475535313 1.6470885384e-05 -0.00058709934819
          5.0131704484e-05 -0.00067326333374 0.00020721786132 -0.00036795958295 0.00022275965603 0.00045396073256
          0.00019165841513 0.00070519268047 0.0010822867043 0.00025336426916 0.0010687618051 -0.00025803950848
          0.00038685460459 0.00080649519805 6.2405179051e-06 -0.00061502191238 4.3213833123e-05 -0.00069761608029
          0.00020495634817 -0.00038509024307 0.00021945722983 0.00045598379802 0.00019028993847 0.00071514339652
          0.0011004479602 0.00024806617876 0.0010895526502 -0.00026789290132 0.00037812604569 0.0007982266834
          -3.8433145164e-06 -0.00062604894629 3.423490125e-05 -0.00070544885239 0.00019678613171 -0.00039391356404
          0.0002102728904 0.00044602656271 0.0001831711852 0.00070533278631 0.0010897580069 0.00023680042068
          0.0010823913617 -0.00027038296685 0.00035971036414 0.00077035313006 -1.3896138626e-05 -0.00062093231827
          2.2947075195e-05 -0.00069777376484 0.00018265475228 -0.0003951008548 0.00019510563288 0.00042408626177
          0.00017006363487 0.00067623215728 0.0010509931017 0.0002195918205 0.0010477014584 -0.00026637053816
          0.00033205014188 0.000723992649 -2.426375795e-05 -0.0006011595251 9.2188220151e-06 -0.00067599216709
          0.0001626706362 -0.00038950220915 0.00017409608699 0.00039077247493 0.00015111795801 0.00062891189009
          0.00098587968387 0.00019653374329 0.00098723801784 -0.00025696874945 0.00029572693165 0.00066072813934
          -3.5303572076e-05 -0.00056871975539 -7.0820192377e-06 -0.00064203585498 0.00013707730977 -0.00037824473111
          0.00014747107343 0.0003469082294 0.00012656816398 0.00056496693287 0.00089688459411 0.00016787913046
          0.00090336881112 -0.00024354174093 0.00025158716016 0.00058266118867 -4.742220699e-05 -0.00052610097919
          -2.6010962756e-05 -0.000598228944 0.00010626849689 -0.00036262936192 0.00011561900465 0.00029366050148
          9.6810959803e-05 0.00048653871636 0.00078725023195 0.00013399071759 0.00079922762234 -0.00022747396724
          0.00020081902039 0.00049253506586 -6.0906997533e-05 -0.00047604425345 -4.7569032176e-05 -0.00054732698482
          7.0832924393e-05 -0.00034422476892 7.9145793279e-05 0.00023252998653 6.2430430262e-05 0.00039620068856
          0.00066092738416 9.5484669146e-05 0.00067873601802 -0.00021045132598 0.00014476421347 0.00039344228571
          -7.6127631473e-05 -0.00042178970762 -7.1690796176e-05 -0.0004924191162 3.1470022805e-05 -0.00032470101723
          3.8744503399e-05 0.00016528404376 2.4126382414e-05 0.00029706142959 0.00052255834453 5.3052252042e-05
          0.00054638821166 -0.00019444021746 8.482348494e-05 0.00028872620896 -9.357372619e-05 -0.00036702255602
          -9.8364514997e-05 -0.00043699913658 -1.1106526472e-05 -0.00030598745798 -4.8780857469e-06 9.382164717e-05
          -1.7397716874e-05 0.00019249563047 0.0003772249911 7.3929209066e-06 0.00040709259338 -0.00018161836488
          2.2449283279e-05 0.00018197720055 -0.00011385945254 -0.00031579885399 -0.00012774727657 -0.0003850547655
          -5.6262473663e-05 -0.00029038570938 -5.1067378081e-05 2.0065981516e-05 -6.1500235461e-05 8.5978543211e-05
          0.00023030661396 -4.082830128e-05 0.0002661201288 -0.00017441331875 -4.0949835238e-05 7.6909876952e-05
          -0.00013780459994 -0.00027258432237 -0.00016017537564 -0.0003409764322 -0.0001034498564 -0.00028052314883
          -9.9298304121e-05 -5.4117444961e-05 -0.00010763610771 -1.8983650079e-05 8.7312750111e-05 -9.1099253041e-05
          0.00012895208783 -0.00017544007278 -0.00010396258585 -2.2707738026e-05 -0.00016624903947 -0.00024206527451
          -0.00019595642516 -0.00030931527726 -0.00015212589642 -0.00027908707852 -0.00014901036047 -0.0001267548505
          -0.00015525841445 -0.00011868771981 -4.5948178013e-05 -0.00014284843928 1.2233002735e-06 -0.00018744351109
          -0.00016506751126 -0.00011290220573 -0.00020017442876 -0.00022917074966 -0.00023548325407 -0.00029488676228
          -0.00020171661163 -0.00028891500551 -0.00019963817613 -0.00019575312035 -0.00020381517243 -0.00020923999546
          -0.00016340237926 -0.00019550819707 -0.00011112826178 -0.00021313002799 -0.00022301683202 -0.0001899888739
          -0.0002404103725 -0.00023874416365 -0.00027899880661 -0.00030206947122 -0.00025168524007 -0.00031261643744
          -0.00025071034906 -0.000259433873 -0.00025266650482 -0.0002870700846 -0.00025952784927 -0.00024876988027
          -0.00020250305533 -0.00025564225507 -0.00027647739626 -0.00025007611839 -0.00028814864345 -0.00027595175197
          -0.00032753797132 -0.00033754867036 -0.00030223894282 -0.000354151387 -0.00030190710095 -0.0003151257406
          -0.00030258778133 -0.00034774135565 -0.00032675886177 -0.00030122610042 -0.00026736737345 -3.6836183426e-05
          0.00020492976182 0.00036241943599 5.9596732171e-05 -0.0001635535009 5.1974580856e-05 -0.00023977694218
          0.00011344686209 -0.00013463555661 0.00013253172801 0.00023109470203 0.00013215708896 0.00032548571471
          0.00047901432845 0.0001396718726 0.0004633073695 2.8614356779e-05 -5.913863788e-05 -4.9276870413e-05
          4.1751278332e-05 4.464677113e-05 0.00012456142576 0.0001474309247 6.9168250775e-05 -0.00023748050444
          -0.00046308440506 0.00017373615992 -0.00028925493825 -0.0006038135034 -7.899350021e-05 -1.6707355826e-05
          0.00024395639775 0.0004337366554 -2.642369509e-05 0.00044021720532 -8.9593951998e-05 -2.3444852559e-05
          0.00054631376406 -0.00014362210641 0.0002454718051 0.00030618658639 -0.00015107315267 -0.00016329775099
          -0.00031799799763 -0.00034443949698 -7.6938915299e-05 -0.00011992829968 -0.00043849842041 -0.00053253740771
          -0.0006992398994 -0.0008339015767 -0.00023471527675 -0.00020451856835 -0.00058904854814 -0.00079965696204
          0.00022218094091 -0.00031685957219 -0.00067264854442 2.2118756533e-06 0.00052125717048 -2.0524692445e-05
          0.00060944672441 -0.00015687366249 0.00034412494279 -0.00017331613344 -0.00037437849096 -0.00014082550479
          -0.00058651005384 -0.00091810274171 -0.00020607325132 -0.00090556108626 0.00025594417821 -0.00033336790511
          -0.00072016590275 1.3436924746e-05 0.0005823347019 -1.461253305e-05 0.00067284004763 -0.00016254279763
          0.00038245494943 -0.00017923164705 -0.00039904320147 -0.00014549164916 -0.00063591636717 -0.00099521141965
          -0.00021237126202 -0.00097647454822 0.00028335524257 -0.00034359146957 -0.00075179856503 2.5731071219e-05
          0.0006296124775 -8.7718517534e-06 0.00071447034134 -0.00016535585746 0.0004088121641 -0.00018088256184
          -0.00041241088184 -0.00014983479923 -0.00066434498876 -0.0010410775431 -0.00021152832778 -0.0010262572905
          0.00030059670098 -0.00034485009382 -0.00076394004282 3.5554767237e-05 0.00065712613286 -2.2607750907e-06
          0.00073840992991 -0.00016350288934 0.00042553673848 -0.00017798683257 -0.0004148373846 -0.00014888313308
          -0.00067469320493 -0.0010596403154 -0.00020663833129 -0.0010474574519 0.00030889365007 -0.00033767975401
          -0.00075722887414 4.4077354687e-05 0.00066659459844 5.1563247325e-06 0.0007446812815 -0.00015689404972
          0.00043279866804 -0.00017036213831 -0.00040644643013 -0.00014332387946 -0.00066644797334 -0.001050520339
          -0.00019694142975 -0.0010418567108 0.00030872528441 -0.00032196936081 -0.00073202053318 5.1408311265e-05
          0.00065878499299 1.3652345842e-05 0.00073421001434 -0.00014551149798 0.00043116026791 -0.00015794590581
          -0.00038728542859 -0.00013296323596 -0.0006401813589 -0.0010145658161 -0.00018248544075 -0.0010098632192
          0.00030086157494 -0.00029820375494 -0.00068951485446 5.7863344409e-05 0.00063512823544 2.3410293579e-05
          0.0007084570243 -0.00012945754861 0.00042155379197 -0.00014086894225 -0.00035793325515 -0.00011794820603
          -0.00059687695466 -0.00095344462898 -0.0001633677748 -0.00095328915631 0.00028641402605 -0.00026697249268
          -0.00063130119815 6.3801926444e-05 0.00059762096498 3.4533550206e-05 0.00066931638867 -0.00010899866902
          0.00040507240919 -0.00011937721138 -0.00031922711059 -9.8524731584e-05 -0.00053815863794 -0.00086963415379
          -0.00013983357348 -0.00087449990679 0.00026681038435 -0.00022903759964 -0.0005593978567 6.9693975092e-05
          0.00054879614618 4.7173696657e-05 0.0006192146102 -8.4430568677e-05 0.00038312189281 -9.3775481218e-05
          -0.0002722517529 -7.4999523349e-05 -0.00046605896205 -0.00076628744137 -0.00011218914005 -0.00077653973131
          0.00024372601183 -0.00018532875401 -0.0004762870667 7.6100499427e-05 0.00049169518752 6.156379095e-05
          0.0005611385568 -5.6100314396e-05 0.00035748656956 -6.4410050982e-05 -0.00021826532611 -4.7717039706e-05
          -0.00038295253762 -0.00064714293694 -8.0787191109e-05 -0.0006630863063 0.00021905962785 -0.00013693569053
          -0.00038483270328 8.3649523731e-05 0.0004297864798 7.7969547419e-05 0.00049850926735 -2.4425849915e-05
          0.00033022134448 -3.1695250073e-05 -0.00015872067888 -1.7093680071e-05 -0.00029154733056 -0.00051648245426
          -4.6031629608e-05 -0.00053838675376 0.00019486382371 -8.5144492914e-05 -0.0002882956469 9.2960690381e-05
          0.00036685756641 9.6552175819e-05 0.0004349972296 1.0035596461e-05 0.00030343385879 3.8079815567e-06
          -9.5354444056e-05 1.6312502339e-05 -0.00019504439842 -0.00037922689808 -8.4863941083e-06 -0.00040724480641
          0.00017345469678 -3.1314477383e-05 -0.00019013427664 0.0001047177866 0.00030708150007 0.00011747295503
          0.00037460043677 4.6686360292e-05 0.000279412081 4.1497030907e-05 -3.0074324968e-05 5.1911301853e-05
          -9.6947151178e-05 -0.00024075173133 3.123874194e-05 -0.00027482505539 0.00015728488506 2.3149417757e-05
          -9.4029768661e-05 0.0001197413003 0.00025492618443 0.00014103509602 0.00032166682649 8.4972642071e-05
          0.0002607224742 8.0823068856e-05 3.5226836189e-05 8.9147426479e-05 -8.1104514038e-07 -0.00010661553097
          7.2609676863e-05 -0.00014659522276 0.000149026484 7.6900672866e-05 -3.7029333271e-06 0.00013893670985
          0.00021514497348 0.00016761168081 0.00028080851189 0.00012441193394 0.00025010976242 0.00012130185496
          9.8654643807e-05 0.00012753237388 8.9714318165e-05 1.7451364329e-05 0.00011513321078 -2.8142534575e-05
          0.00015146828082 0.00012845736637 7.6930438809e-05 0.00016331976803 0.00019270203484 0.00019760864961
          0.00025685460423 0.00016446984955 0.00025041241315 0.00016239529941 0.00015812052879 0.00016655742365
          0.000170740459 0.00012537823932 0.00015825562878 7.4663497799e-05 0.00016741850413 0.0001766585483
          0.00014427820861 0.00019380444428 0.00019253566279 0.0002313566365 0.00025427385117 0.00020468054572
          0.00026434057509 0.00020370785205 0.00021203602955 0.00020565655723 0.00023879416403 0.00021173339337
          0.00020176476391 0.00015629435075 0.00020011000743 0.00022029447427 0.00019454475841 0.00023171723296
          0.00021992194525 0.00027006675373 0.00027992526884 0.0002454095229 0.00029603607254 0.00024507803028
          0.00025790205109 0.00024575958378 0.00028962828219 0.00026913621696 0.00024439860135 0.00021133606788
          6.7013788794e-05 -0.00017411544104 -0.00033223335049 -2.866396062e-05 0.00019411144604 -2.0877914721e-05
          0.00027114653494 -8.2415368524e-05 0.00016597991635 -0.00010160569218 -0.00019998679636 -0.00010113405006
          -0.00029417907353 -0.00044777468429 -0.00010862953786 -0.00043281694525 -8.6359256102e-07 8.677245205e-05
          7.7906086517e-05 -1.5018563317e-05 -1.742673885e-05 -9.5849194622e-05 -0.0001195933728 -0.0001274105889
          9.3082389867e-06 0.00014620175352 8.9973837021e-05 9.6842022685e-06 -7.1483991633e-05 9.7154033938e-06
          -0.00010060779459 9.7384690889e-06 -0.00014851499873 0.00016732496442 9.2633781605e-06 0.00011908230226
          -0.00041987971053 6.4966252467e-06 0.00043281738181 0.00025478322641 6.3968477662e-06 -0.00024183139612
          6.388456768e-06 -0.00026385643287 6.3791771936e-06 -0.00043288469897 0.00044579728274 6.4979708441e-06
          0.00027679945924 -0.00065548665589 3.845574156e-06 0.00066317600431 0.00039595266571 3.8475272959e-06
          -0.00038831320126 3.841546004e-06 -0.00040418677963 3.8488747123e-06 -0.00066539901309 0.00067307747668
          3.8377984311e-06 0.00041182368295 -0.00080612790771 1.7660263438e-06 0.00080962706124 0.00048950861674
          1.7324070996e-06 -0.00048607465578 1.7264845837e-06 -0.00049606803805 1.7314175693e-06 -0.00081228045747
          0.00081577786477 1.7645701291e-06 0.00049950147513 -0.0012388789328 4.9446799721e-07 0.0012398203835
          0.00074174196925 4.47896781e-07 -0.00074089871487 4.4046029757e-07 -0.00074572535232 4.4726252213e-07
          -0.0012418548577 0.0012427949114 4.889786851e-07 0.00074656604556 0 0
          0 0 0 0 0 0
          0 0 0 0 0
        </DataArray>
        <DataArray type="Float32" Name="uz" format="ascii" RangeMin="-0.24892811477" RangeMax="0.24892875552">
          -0.045252427459 -0.041670273989 -0.039421141148 1.2159379992e-07 0.045253165066 0.039421688765
          0.041669841856 -0.045279029757 -0.042914070189 -0.028023486957 -5.0769466498e-07 0.042911347002
          0.045278538018 0.028022062033 -0.042945049703 -0.028029205278 0.042947489768 0.028030110523
          -0.035860229284 -4.9029353022e-07 0.035859413445 -0.035923480988 0.03592165187 0.03591234982
          4.0760218667e-07 -0.035910602659 -1.5452513935e-07 0.18080374599 0.16487941146 0.18080194294
          0.18816663325 0.16833814979 0.18820509315 0.15880706906 0.16085475683 0.16864965856
          0.17319227755 0.13306127489 0.12925902009 0.14896611869 0.12883898616 0.12410150468
          0.1486800909 0.11709618568 0.10870504379 0.14897300303 0.1486492008 0.13914005458
          0.1364505142 0.14894333482 0.14873632789 0.11711007357 0.10874692351 0.12926357985
          0.12409832329 0.14896181226 0.14875735343 0.1686347127 0.1731556803 0.17176936567
          0.16042026877 0.17178070545 0.15611730516 0.16313837469 0.137881428 0.1351814419
          0.14914691448 0.12654319406 0.14915108681 0.1421880424 0.14914634824 0.12655779719
          0.13518375158 0.14915628731 0.16312076151 0.16167233884 0.15549743176 0.16167730093
          0.15315428376 0.15697592497 0.14322023094 0.14174413681 0.14935806394 0.13703204691
          0.14935874939 0.14556647837 0.1493563056 0.13704174757 0.14174348116 0.14936184883
          0.1569673568 0.15081369877 0.15016828477 0.15081885457 0.14993108809 0.15033257008
          0.14892655611 0.1487647742 0.14954774082 0.14827632904 0.14954796433 0.14916366339
          0.14954727888 0.14828078449 0.14876134694 0.14954669774 0.15033006668 0.13948434591
          0.1446018368 0.1394879818 0.14655679464 0.14339439571 0.15484878421 0.15605515242