<VTKFile type="UnstructuredGrid" version="1.0" byte_order="LittleEndian" header_type="UInt64">
  <UnstructuredGrid>
    <Piece NumberOfPoints="791" NumberOfCells="973">
      <PointData>
        <DataArray type="Float32" Name="ux" format="ascii" RangeMin="0" RangeMax="1.0823907852">
          0.091462925076 0.099858470261 0.10309556127 0.089911982417 0.091463647783 0.10309328139
          0.099857099354 0.091468580067 0.097720466554 0.09290868789 0.089928105474 0.097719304264
          0.091466628015 0.092901669443 0.097748011351 0.092909120023 0.097749553621 0.092918656766
          0.10840985179 0.09709443152 0.1084131673 0.1083675921 0.10836926103 0.10839147866
          0.09708506614 0.10839299113 0.088912822306 0.20550020039 0.20543183386 0.20549529791
          0.16692504287 0.16689994931 0.1669190377 0.20541198552 0.16688704491 0.20541253686
          0.1668548435 0.20542441308 0.20538079739 0.20538453758 0.16693277657 0.16690485179
          0.16687518358 0.20547349751 0.16701927781 0.20540960133 0.16690047085 0.20540624857
          0.16691018641 0.20532862842 0.16681449115 0.20547936857 0.16702124476 0.2053963542
          0.16691893339 0.20535182953 0.1668381542 0.20539709926 0.1668394953 0.2458948046
          0.24584136903 0.24588957429 0.24582411349 0.24581725895 0.24584135413 0.24580457807
          0.2458011359 0.2458923012 0.24582459033 0.24582453072 0.24574881792 0.2458973527
          0.24582004547 0.24577139318 0.24580210447 0.28803890944 0.28798818588 0.28803372383
          0.28797361255 0.28796961904 0.28798827529 0.28795346618 0.28795188665 0.28803277016
          0.28797349334 0.28797358274 0.28790444136 0.28803819418 0.28796896338 0.2879268527
          0.28795430064 0.33175054193 0.33170506358 0.33174529672 0.33169221878 0.3316885829
          0.33170464635 0.33167305589 0.33167177439 0.33174476027 0.33169162273 0.33169203997
          0.33162865043 0.33175012469 0.33168846369 0.33165055513 0.33167344332 0.37687012553
          0.37682923675 0.37686499953 0.3768183291 0.37681549788 0.37682902813 0.3768003583
          0.37679949403 0.37686449289 0.37681755424 0.37681823969 0.37676078081 0.3768697679
          0.37681534886 0.37678182125 0.37680074573 0.42324131727 0.42320495844 0.42323625088
          0.42319583893 0.42319369316 0.42320472002 0.42317891121 0.42317843437 0.42323577404
          0.42319476604 0.42319571972 0.42314395308 0.42324095964 0.42319354415 0.42316421866
          0.42317929864 0.4707134366 0.4706813693 0.47070842981 0.47067400813 0.47067257762
          0.47068116069 0.47065809369 0.47065797448 0.47070798278 0.47067266703 0.47067391872
          0.47062748671 0.47071310878 0.47067239881 0.47064715624 0.47065839171 0.51914185286
          0.51911389828 0.51913690567 0.51910817623 0.51910740137 0.51911377907 0.51909333467
          0.51909357309 0.51913660765 0.51910662651 0.51910811663 0.51906692982 0.51914155483
          0.51910722256 0.51908576488 0.51909357309 0.56838929653 0.56836521626 0.56838440895
          0.56836104393 0.56836080551 0.56836503744 0.56834709644 0.56834763288 0.56838411093
          0.56835919619 0.56836092472 0.56832462549 0.56838899851 0.5683606267 0.56834280491
          0.56834727526 0.61832666397 0.61830610037 0.61832171679 0.61830341816 0.61830383539
          0.61830592155 0.61829018593 0.61829108 0.61832147837 0.618301332 0.61830329895
          0.61827135086 0.61832636595 0.61830359697 0.61828923225 0.61829030514 0.66883349419
          0.66881614923 0.6688284874 0.66881495714 0.66881597042 0.66881603003 0.66880220175
          0.66880345345 0.66882824898 0.66881257296 0.66881483793 0.66878670454 0.66883319616
          0.668815732 0.66880446672 0.66880232096 0.71979868412 0.7197842598 0.71979361773
          0.71978437901 0.71978592873 0.71978420019 0.71977221966 0.71977376938 0.71979343891
          0.7197817564 0.7197842598 0.71975976229 0.7197984457 0.71978574991 0.71977728605
          0.71977233887 0.77112132311 0.77110952139 0.77111625671 0.77111071348 0.77111274004
          0.77110946178 0.77109915018 0.77110093832 0.7711160779 0.77110797167 0.77111065388
          0.77108943462 0.77112108469 0.77111256123 0.77110666037 0.77109926939 0.82271134853
          0.822701931 0.82270628214 0.82270407677 0.82270646095 0.82270181179 0.8226929307
          0.82269495726 0.82270610332 0.82270115614 0.82270401716 0.82268559933 0.82271111012
          0.82270628214 0.82270258665 0.82269304991 0.87449032068 0.8744828701 0.87448531389
          0.87448585033 0.87448853254 0.87448275089 0.8744751215 0.87447732687 0.87448513508
          0.8744828105 0.87448579073 0.87446975708 0.87449020147 0.87448847294 0.87448656559
          0.8744751811 0.92639249563 0.92638653517 0.92638742924 0.92639023066 0.92639321089
          0.92638647556 0.92637974024 0.92638212442 0.92638731003 0.92638707161 0.92639023066
          0.92637598515 0.92639243603 0.92639321089 0.92639273405 0.92637979984 0.97836560011
          0.97836077213 0.97836053371 0.97836494446 0.9783681035 0.97836077213 0.97835469246
          0.97835719585 0.97836047411 0.9783616662 0.97836494446 0.97835212946 0.97836560011
          0.9783681035 0.97836869955 0.97835475206 1.0303711891 1.030367136 1.0303661823
          1.0303715467 1.0303747654 1.0303670168 1.0303615332 1.0303640366 1.0303660631
          1.0303682089 1.0303715467 1.0303596258 1.0303711891 1.0303747654 1.0303760767
          1.0303615332 1.0823853016 1.0823814869 1.0823802948 1.0823860168 1.0823893547
          1.0823814869 1.0823761225 1.0823786259 1.0823802948 1.082382679 1.0823860168
          1.0823744535 1.0823853016 1.0823893547 1.0823907852 1.0823761225 0.11676725
          0.12273767591 0.11675270647 0.12500156462 0.12131567299 0.13457001746 0.13595800102
          0.12864333391 0.14054740965 0.12866021693 0.13231007755 0.12860058248 0.14054365456
          0.13597458601 0.1286251843 0.12130161375 0.11716146022 0.11914469302 0.12585930526
          0.10844565928 0.11381234974 0.12587872148 0.1191612184 0.16692368686 0.16689793766
          0.16691675782 0.20549815893 0.20542865992 0.20549175143 0.16688606143 0.20541013777
          0.16685436666 0.20541167259 0.16693070531 0.16690145433 0.16687233746 0.20542126894
          0.20537611842 0.20538060367 0.16701692343 0.20546999574 0.16689871252 0.20540679991
          0.16690921783 0.20540440083 0.16681081057 0.20532347262 0.16702012718 0.20547734201
          0.16691876948 0.20539547503 0.16683830321 0.20535138249 0.16683629155 0.20539237559
          0.24589197338 0.24583730102 0.24588507414 0.24582155049 0.24581576884 0.24583730102
          0.24579879642 0.24579612911 0.24588786066 0.24582092464 0.24582195282 0.24574247003
          0.24589453638 0.24581854045 0.2457704097 0.24579624832 0.28803551197 0.28798341751
          0.28802844882 0.2879704833 0.28796771169 0.28798353672 0.28794682026 0.287946105
          0.28802758455 0.287969172 0.2879704237 0.28789716959 0.28803473711 0.28796696663
          0.28792545199 0.28794753551 0.33174681664 0.33169975877 0.33173945546 0.33168879151
          0.33168652654 0.33169937134 0.33166569471 0.33166536689 0.33173900843 0.33168685436
          0.33168855309 0.3316206038 0.33174631 0.33168628812 0.33164903522 0.33166593313
          0.37686607242 0.37682339549 0.37685856223 0.37681466341 0.37681341171 0.37682321668
          0.37679210305 0.37679237127 0.37685808539 0.37681230903 0.3768145442 0.37675175071
          0.37686565518 0.37681314349 0.37678042054 0.37679240108 0.42323666811 0.42319828272
          0.4232288599 0.423191607 0.42319124937 0.4231980443 0.42316943407 0.42317026854
          0.42322844267 0.42318877578 0.42319148779 0.42313361168 0.42323628068 0.42319104075
          0.42316260934 0.42316973209 0.47070750594 0.47067308426 0.47069934011 0.47066855431
          0.47066915035 0.47067290545 0.47064658999 0.47064802051 0.47069898248 0.47066518664
          0.4706684351 0.47061502934 0.47070714831 0.47066894174 0.47064468265 0.47064682841
          0.51913410425 0.51910346746 0.51912552118 0.51910096407 0.51910251379 0.51910328865
          0.51907908916 0.51908105612 0.51912522316 0.51909703016 0.51910084486 0.51905155182
          0.51913374662 0.51910227537 0.51908200979 0.51907926798 0.56837946177 0.56835234165
          0.56837058067 0.56835174561 0.56835412979 0.56835222244 0.56833004951 0.56833255291
          0.56837028265 0.56834739447 0.568351686 0.56830632687 0.56837916374 0.56835395098
          0.56833738089 0.56833022833 0.61831468344 0.61829090118 0.61830550432 0.61829209328
          0.61829525232 0.61829078197 0.618270576 0.61827355623 0.6183052659 0.6182872653
          0.61829203367 0.61825042963 0.61831438541 0.61829507351 0.61828196049 0.61827075481
          0.66881948709 0.66879880428 0.66881000996 0.6688016057 0.66880553961 0.66879868507
          0.66878014803 0.6687836051 0.66880977154 0.66879636049 0.6688015461 0.66876327991
          0.66881924868 0.6688054204 0.66879546642 0.66878026724 0.71978265047 0.71976470947
          0.71977287531 0.71976906061 0.71977370977 0.71976459026 0.71974754333 0.71975147724
          0.71977263689 0.71976339817 0.71976900101 0.71973365545 0.71978247166 0.71977365017
          0.71976661682 0.71974766254 0.77110344172 0.7710878849 0.77109330893 0.77109366655
          0.77109897137 0.77108776569 0.77107203007 0.77107638121 0.77109307051 0.77108758688
          0.77109360695 0.77106070518 0.7711032629 0.77109891176 0.77109450102 0.77107214928
          0.82269197702 0.82267850637 0.82268160582 0.82268553972 0.82269138098 0.82267844677
          0.82266384363 0.8226685524 0.8226813674 0.82267910242 0.82268548012 0.82265484333
          0.82269185781 0.82269132137 0.82268917561 0.82266396284 0.87447011471 0.8744584918
          0.87445956469 0.87446647882 0.87447279692 0.8744584322 0.87444484234 0.87444984913
          0.87445938587 0.8744598031 0.87446647882 0.87443780899 0.8744700551 0.87447279692
          0.8744725585 0.87444496155 0.92637211084 0.92636191845 0.92636138201 0.92637073994
          0.92637741566 0.92636185884 0.92634904385 0.92635428905 0.9263612628 0.9263638258
          0.92637073994 0.92634356022 0.92637205124 0.92637741566 0.92637866735 0.92634916306
          0.97834515572 0.97833603621 0.97833436728 0.97834539413 0.97835236788 0.97833603621
          0.97832387686 0.97832924128 0.97833424807 0.97833836079 0.97834539413 0.97831946611
          0.97834515572 0.97835230827 0.97835475206 0.97832393646 1.0303504467 1.0303421021
          1.0303395987 1.030351758 1.0303587914 1.0303419828 1.0303303003 1.030335784
          1.0303395987 1.0303446054 1.030351758 1.0303266048 1.0303504467 1.0303587914
          1.0303617716 1.0303303003 1.0823642015 1.0823559761 1.0823532343 1.0823657513
          1.0823729038 1.0823559761 1.0823442936 1.0823497772 1.0823532343 1.0823585987
          1.0823657513 1.0823409557 1.0823640823 1.0823727846 1.0823761225 1.0823444128
          0.11676810682 0.12273677438 0.11675162613 0.12500168383 0.12131755799 0.13456900418
          0.13595581055 0.12864226103 0.14054591954 0.12865953147 0.13231009245 0.12859809399
          0.14054328203 0.13597525656 0.1286264658 0.12129935622 0.11716102809 0.11914350092
          0.12585875392 0.10844596475 0.11381290853 0.12587870657 0.11916178465 0.05904025957
          0.058869414032 0.059038490057 0.059375386685 0.059124499559 0.059375841171 0.059166401625
          0.059377077967 0.059128839523 0.059039715677 0.059037312865 0.058874499053 0.059376984835
          0.036155838519 0.036126181483 0.03615617007 0.036375906318 0.036137726158 0.03637585789
          0.036150012165 0.036376606673 0.036137998104 0.036158695817 0.036159176379 0.036128155887
          0.036376543343 0.019407594576 0.019342780113 0.019407467917 0.01964790374 0.019408570603
          0.019647914916 0.019423700869 0.019648434594 0.01940933615 0.019408680499 0.019408492371
          0.019344514236 0.019648399204 0.0081889946014 0.0081358682364 0.0081889871508 0.0084136594087
          0.0081900339574 0.0084136612713 0.0082061896101 0.0084139918908 0.0081903841347 0.0081898747012
          0.0081898579374 0.0081368386745 0.00841394905 0.0018978636945 0.0018324188422 0.0018978834851
          0.0021667047404 0.0018876414979 0.0021666898392 0.0019005180802 0.0021668602712 0.0018878681585
          0.0018983028131 0.0018983309856 0.0018329925369 0.0021668805275 0 0
          0 0 0 0 0 0
          0 0 0 0 0
        </DataArray>
        <DataArray type="Float32" Name="uy" format="ascii" RangeMin="-0.0005907615996" RangeMax="0.0006883671158">
          3.8102734834e-05 -2.1244737582e-05 5.8284185798e-05 2.0057009351e-06 -2.9846192774e-05 -5.0008879043e-05
          2.9166027161e-05 -3.2961143006e-05 -0.00012301135575 -2.7706462788e-05 2.276990017e-06 0.0001310788648
          4.1082865209e-05 3.4808635974e-05 0.00012180694466 4.5533804951e-05 -0.00011379172065 -3.8688154746e-05
          -5.9688547481e-05 4.1344951569e-06 6.872969243e-05 -5.8767935116e-05 6.7670436692e-05 -5.6063003285e-05
          4.1741554924e-06 6.4772131736e-05 2.0461911845e-06 6.0110403865e-05 0.0001171677286 0.00015810165496
          4.4724245527e-05 8.7356136646e-05 0.00012202353537 8.0013080151e-05 6.3544532168e-05 2.5600786103e-05
          1.3413346096e-05 8.0799567513e-05 1.5446472389e-05 9.9250166386e-05 5.3464478697e-05 -1.4684150301e-05
          6.5834145062e-05 4.0201033698e-05 1.0316481166e-05 9.8727388831e-05 7.3915092798e-05 0.00011695101421
          9.7423973784e-05 9.7994481621e-05 6.9605004683e-05 0.00013710516214 0.00011411956075 0.00017233313702
          0.00015221784997 9.9330565718e-05 8.0045298091e-05 0.00018190893752 0.00014399181237 9.255840996e-05
          0.00014232158719 0.00017898094666 0.00010919272609 6.0316586314e-05 0.00010902943905 5.1379389333e-05
          0.00012586695084 7.2470131272e-05 0.00012560773757 0.00014150394418 0.0001264722523 0.00015806595911
          0.00018967872893 0.00012493469694 0.00020109699108 0.00012440109276 0.0001690689096 0.00020284288621
          0.00013911930728 9.5221032097e-05 0.00013805295748 8.5295039753e-05 0.00015368098684 0.00010431406554
          0.00015354434436 0.00016783212777 0.00015377276577 0.00018251941947 0.00021164558711 0.00015343264386
          0.00022210848692 0.00015752841136 0.00019719648117 0.00022787805938 0.00017004573601 0.00013092601148
          0.00016844895435 0.00012111258548 0.0001829458779 0.0001377669978 0.00018278698553 0.00019530483405
          0.00018315482885 0.00020778780163 0.00023423790117 0.0001825614163 0.00024498681887 0.00019181282551
          0.00022670002363 0.00025438223383 0.0002024477144 0.00016789522488 0.00020039496303 0.00015821047418
          0.00021366323926 0.00017273380945 0.00021352415206 0.00022441643523 0.00021383231797 0.00023501116084
          0.00025882854243 0.00021335981728 0.00026927742874 0.00022753891244 0.00025782635203 0.00028258393286
          0.00023631638032 0.00020617624978 0.00023385683016 0.00019666152366 0.00024594814749 0.00020910523017
          0.00024581773323 0.00025513768196 0.00024610920809 0.00026387610706 0.00028513543657 0.00024564782507
          0.00029538391391 0.00026451909798 0.00029035680927 0.00031235042843 0.00027148361551 0.00024557413417
          0.00026857751072 0.00023614353267 0.0002795594628 0.00024660350755 0.00027944709291 0.00028724817093
          0.00027969173971 0.00029418853228 0.00031301379204 0.00027927881456 0.0003231021401 0.0003021658631
          0.00032380377525 0.00034314751974 0.00030743156094 0.00028553308221 0.00030416049412 0.00027625259827
          0.00031405125628 0.00028486014344 0.00031395672704 0.00032032970921 0.00031415454578 0.00032562328852
          0.0003420887806 0.00031378070707 0.00035196705721 0.00033988294308 0.00035757152364 0.00037442261237
          0.00034356693504 0.00032543588895 0.00033995124977 0.00031629830482 0.00034881060128 0.00032315772842
          0.0003487385984 0.00035377842141 0.00034887919901 0.00035750085954 0.00037176971091 0.00034856706043
          0.00038141620462 0.00037720834371 0.00039113950334 0.000405740313 0.00037929939572 0.00036473493674
          0.00037522730418 0.00035553690395 0.00038322000182 0.00036069587804 0.00038315539132 0.00038689325447
          0.00038327230141 0.00038904248504 0.00040132040158 0.00038298688014 0.00041099180817 0.00041386522935
          0.00042429094901 0.00043685740093 0.00041442664224 0.00040319017717 0.00040985972737 0.00039382270188
          0.00041711091762 0.00039735753671 0.00041705000331 0.00041955366032 0.00041716327542 0.00042018169188
          0.00043066585204 0.000416887342 0.00044048810378 0.00044972717296 0.00045701159979 0.00046769090113
          0.00044897402404 0.00044073114987 0.00044402707135 0.00043131248094 0.00045054926886 0.00043340492994
          0.00045049688197 0.00045191706158 0.00045060142293 0.00045121400035 0.00046005754848 0.0004503588716
          0.00046986615052 0.00048490744666 0.00048940564739 0.00049838115228 0.00048300437629 0.00047741693561
          0.00047773553524 0.00046798953554 0.00048360376968 0.00046880953596 0.00048355109175 0.00048401558888
          0.0004836441949 0.00048214721028 0.00048950425116 0.00048343001981 0.00049927661894 0.00051956140669
          0.00052163121291 0.0005291167181 0.00051664846251 0.00051338254707 0.00051109382184 0.00050392659614
          0.00051638693549 0.00050363916671 0.00051634811098 0.00051597109996 0.00051642721519 0.00051308260299
          0.00051915604854 0.00051624904154 0.00052890420193 0.00055376475211 0.00055377127137 0.00056003441568
          0.00054998364067 0.00054867798463 0.00054415944032 0.00053915783064 0.00054898532107 0.00053792772815
          0.00054895167705 0.00054786418332 0.00054902391275 0.00054410420125 0.00054910843028 0.00054887827719
          0.00055886647897 0.0005875955103 0.00058595620794 0.00059124606196 0.00058311049361 0.00058337958762
          0.00057703920174 0.0005737550091 0.00058152317069 0.00057174707763 0.00058149424149 0.00057983177248
          0.0005815528566 0.00057533342624 0.00057952146744 0.00058144773357 0.0005893179914 0.00062123412499
          0.00061839824775 0.00062296970282 0.00061624363298 0.00061765470309 0.00061003799783 0.00060801254585
          0.00061423861189 0.00060547323665 0.00061420968268 0.0006121477345 0.00061427336186 0.00060716411099
          0.00061071867822 0.00061418267433 0.00062049605185 0.00065483979415 0.00065128476126 0.00065537774935
          0.00064958824078 0.00065169477602 0.0006433231174 0.00064206938259 0.00064731034217 0.00063922809204
          0.00064730213489 0.00064500467852 0.00064732565079 0.00063974340446 0.00064289418515 0.00064729806036
          0.0006525653298 0.00068824499613 0.00068443751661 0.0006883671158 0.00068289530464 0.00068523135269
          0.00067659665365 0.00067559938179 0.00068052060669 0.00067265942926 0.00068052025745 0.00067814468639
          0.00068052182905 0.00067277776543 0.00067579688039 0.00068051629933 0.00068543938687 -1.2274703295e-05
          5.6536649936e-05 9.4330876891e-05 2.2147811251e-05 -3.7163441448e-05 2.3061660613e-05 -5.6949611462e-05
          3.1033341656e-05 -2.2074427761e-05 4.0840499423e-05 7.0879774285e-05 3.1061728805e-05 9.9520133517e-05
          0.00014126292081 5.2705425333e-05 0.00011836001795 1.4412008568e-05 -1.6284933736e-05 -1.7428919818e-05
          9.1200672614e-06 -3.8501698327e-06 5.1742725191e-05 4.5093587687e-05 -3.6097142583e-05 -7.7906246588e-05
          -0.0001133789483 -5.0098788051e-05 -0.00010601109534 -0.0001480782812 -5.3770203522e-05 -6.8444489443e-05
          -4.1756093196e-06 -1.4743503016e-05 -4.2085586756e-05 2.6244555556e-05 -5.5426433391e-05 -6.7440276325e-05
          -1.7962681795e-06 -8.697812882e-05 1.9964168132e-06 -2.5721827114e-05 -6.3488616433e-05 -8.6475331045e-05
          -8.6443062173e-05 -0.00010403559281 -5.9211659391e-05 -8.5705469246e-05 -0.00010182701226 -0.00012266152771
          -0.00014068481687 -0.00015876341786 -6.9722067565e-05 -8.7115920905e-05 -0.00013470395061 -0.00017101578123
          -8.1243553723e-05 -0.00012971596152 -0.00016766408226 -9.6102841781e-05 -4.8009929742e-05 -9.3861177447e-05
          -3.5873163142e-05 -0.00011195235857 -5.6035954913e-05 -0.00011171209189 -0.00012683999375 -0.00011252152763
          -0.00014165618632 -0.00017422097153 -0.00011104089936 -0.00018876319518 -0.0001110674275 -0.00015432150394
          -0.00018951036327 -0.00012383796275 -8.0779915152e-05 -0.00012051778322 -6.7367145675e-05 -0.00013750516518
          -8.5398736701e-05 -0.00013739876158 -0.00015083627659 -0.00013753579697 -0.00016362943279 -0.0001937893976
          -0.00013725976169 -0.00020764612418 -0.00014095270308 -0.00017903278058 -0.00021129401284 -0.00015129310486
          -0.00011310850823 -0.00014720975014 -9.9459313788e-05 -0.00016320795112 -0.00011500548135 -0.00016307862825
          -0.00017464395205 -0.00016335552209 -0.00018503108004 -0.00021260790527 -0.00016280432465 -0.00022713752696
          -0.00017069200112 -0.00020374698215 -0.00023324287031 -0.00017880495579 -0.00014535344962 -0.00017386394029
          -0.00013123056851 -0.00018889537023 -0.00014442804968 -0.0001887724211 -0.0001985476556 -0.00018902229203
          -0.00020668032812 -0.00023181377037 -0.00018854724476 -0.0002466965816 -0.0002005968563 -0.0002287702373
          -0.00025560695212 -0.00020647242491 -0.0001776170684 -0.00020066952857 -0.0001629783219 -0.00021480555006
          -0.0001738758292 -0.00021469060448 -0.00022272049682 -0.00021493139502 -0.00022861409525 -0.00025140796788
          -0.00021447744803 -0.00026677100686 -0.00023085495923 -0.0002542748698 -0.00027866411256 -0.00023448909633
          -0.00021007058967 -0.00022774006356 -0.00019474930014 -0.00024108124489 -0.0002034179779 -0.00024097661662
          -0.00024730310543 -0.00024119064619 -0.00025097897742 -0.00027158024022 -0.00024079129798 -0.00028754677624
          -0.00026136316592 -0.00028023065533 -0.00030233082362 -0.00026281413739 -0.00024263162049 -0.00025508258841
          -0.00022652672487 -0.00026771932608 -0.00023304403294 -0.00026763047208 -0.00027230387786 -0.00026780835469
          -0.00027379460516 -0.00029235554393 -0.00026745931245 -0.00030902432627 -0.00029162605642 -0.00030624703504
          -0.0003261564998 -0.000291078788 -0.0002748525585 -0.00028249394381 -0.0002581216977 -0.00029441577499
          -0.00026263899053 -0.00029434802127 -0.0002974976378 -0.00029448760324 -0.00029697985156 -0.00031359889545
          -0.00029419825296 -0.00033081282163 -0.00032154013752 -0.00033222118509 -0.00035006369581 -0.00031914978172
          -0.00030660940683 -0.00030980771407 -0.00028935508453 -0.00032105538412 -0.00029201348661 -0.0003209906863
          -0.00032272579847 -0.00032112307963 -0.00032037039637 -0.00033515435643 -0.00032085669227 -0.00035284820478
          -0.00035125171416 -0.00035825360101 -0.00037423925824 -0.000347100402 -0.00033799375524 -0.00033697471372
          -0.00032012644806 -0.00034765063901 -0.00032103274134 -0.0003475950507 -0.00034799403511 -0.00034771251376
          -0.00034387275809 -0.00035700926674 -0.00034747476457 -0.00037525873631 -0.0003807633766 -0.00038438194315
          -0.00039872594061 -0.00037494342541 -0.00036898121471 -0.00036401601392 -0.0003504336928 -0.00037424993934
          -0.00034969160333 -0.00037418061402 -0.00037333095679 -0.00037430570228 -0.00036751633161 -0.00037920437171
          -0.00037407214404 -0.00039811988245 -0.00041016505565 -0.00041074462933 -0.00042364734691 -0.00040283601265
          -0.00039969111094 -0.00039117425331 -0.00038050420699 -0.00040100590559 -0.00037828271161 -0.00040094763972
          -0.00039897265378 -0.00040107683162 -0.00039163412293 -0.0004020454071 -0.00040086061927 -0.00042157495045
          -0.00043961335905 -0.00043758237734 -0.00044920112123 -0.00043102327618 -0.00043030598317 -0.00041876145406
          -0.00041061680531 -0.00042821647367 -0.00040713598719 -0.00042816568748 -0.00042524380842 -0.00042828460573
          -0.0004166221479 -0.00042591095553 -0.00042811041931 -0.0004458745243 -0.00046940802713 -0.00046517906594
          -0.00047570737661 -0.00045975588728 -0.00046108855167 -0.00044699970749 -0.00044098639046 -0.00045613505063
          -0.00043645518599 -0.00045608586515 -0.00045236424194 -0.00045619759476 -0.00044266763143 -0.00045099487761
          -0.00045605294872 -0.00047132870532 -0.0004996858188 -0.00049369642511 -0.0005033473717 -0.00048918358516
          -0.00049215188483 -0.00047606180306 -0.00047175373766 -0.00048491547932 -0.00046640145592 -0.00048487668391
          -0.00048052321654 -0.00048496222007 -0.00046999694314 -0.00047753253602 -0.00048484496074 -0.00049811037024
          -0.00053022848442 -0.00052296638023 -0.0005319523043 -0.00051914027426 -0.00052328692982 -0.0005057657836
          -0.00050269369967 -0.00051438412629 -0.00049677316565 -0.00051436648937 -0.00050956982886 -0.00051440857351
          -0.00049846054753 -0.00050540576922 -0.00051435019122 -0.00052609451814 -0.00056057219626 -0.00055254716426
          -0.00056109944126 -0.00054915557848 -0.00055401289137 -0.00053567887517 -0.00053338066209 -0.00054412189638
          -0.00052713643527 -0.00054410885787 -0.00053905852837 -0.00054413016187 -0.00052764127031 -0.00053418858442
          -0.00054409733275 -0.00055487593636 -0.00059063918889 -0.00058234523749 -0.0005907615996 -0.00057908537565
          -0.0005841961829 -0.00056556006894 -0.00056351494277 -0.00057395658223 -0.00055715476628 -0.0005739457556
          -0.00056880322518 -0.00057396071497 -0.0005572688533 -0.00056369538652 -0.00057394022588 -0.00058440642897
          1.884667472e-05 -4.8480236728e-05 -8.7747990619e-05 -1.3641960322e-05 4.4773911213e-05 -1.3009484974e-05
          6.740030949e-05 -2.1972469767e-05 3.3243013604e-05 -3.1822361052e-05 -6.1169252149e-05 -2.1992105758e-05
          -8.8369328296e-05 -0.00013090489665 -4.3594925955e-05 -0.00011079535034 -4.264002655e-06 2.6225068723e-05
          2.8475265935e-05 -5.5110159991e-08 1.341434654e-05 -4.0634466131e-05 -3.5016921174e-05 0.00021504526376
          1.3754142856e-06 -0.00021213373111 -0.00012557055743 1.7188382344e-06 0.00012820411939 1.7527004275e-06
          0.00012553336273 1.781755941e-06 0.00021024742455 -0.00020730533288 1.3461292383e-06 -0.00012292682368
          0.0001700068533 -3.2072333056e-07 -0.00017072836636 -0.00010469147674 -4.392141193e-07 0.00010392653348
          -4.5236575374e-07 0.00010173207556 -4.6211616223e-07 0.00016932123981 -0.00017008028226 -3.3099686902e-07
          -0.00010250663036 0.00017711265536 -1.176566343e-06 -0.00017946813023 -0.00010920635395 -1.1842214462e-06
          0.0001067844787 -1.1874468555e-06 0.00010515702161 -1.1744490394e-06 0.00017596967518 -0.00017831462901
          -1.1604849988e-06 -0.00010757170094 0.00016590634186 -1.0513342659e-06 -0.0001680294954 -0.00010273904627
          -1.068094889e-06 0.00010058985936 -1.0646730288e-06 9.9619530374e-05 -1.063621994e-06 0.00016534895985
          -0.0001674406376 -1.0350032653e-06 -0.00010175880743 0.00020231347298 -4.4755458362e-07 -0.00020319492614
          -0.00012241632794 -4.3385992399e-07 0.00012155544391 -4.3616407197e-07 0.00012101372704 -4.4300290369e-07
          0.00020195779507 -0.00020287602092 -4.6877048021e-07 -0.00012188979599 0 0
          0 0 0 0 0 0
          0 0 0 0 0
        </DataArray>
        <DataArray type="Float32" Name="uz" format="ascii" RangeMin="-0.085720002651" RangeMax="0.085716448724">
          0.014711634256 0.013787313364 0.013160391711 5.5127223675e-08 -0.014710866846 -0.013159868307
          -0.013787489384 0.014697550796 0.014399092644 0.009064569138 -3.0294094699e-07 -0.014401544817
          -0.014697683975 -0.0090652434155 0.014384337701 0.0090656150132 -0.014381970279 -0.0090650739148
          0.012064355426 3.6782439317e-09 -0.012064774521 0.012065124698 -0.012066412717 -0.01206941437
          1.2370463764e-07 0.012070993893 -9.3588333527e-08 -0.078972414136 -0.068416662514 -0.078985087574
          -0.077948726714 -0.067925006151 -0.077949918807 -0.064380303025 -0.064076691866 -0.070902772248
          -0.070271685719 -0.047321144491 -0.044838290662 -0.057875346392 -0.047861129045 -0.045498337597
          -0.057880904526 -0.03676526621 -0.037871222943 -0.05786690861 -0.057880755514 -0.051342990249
          -0.051672749221 -0.057885281742 -0.057880889624 -0.036757547408 -0.037861861289 -0.044814072549
          -0.045476276428 -0.05785574019 -0.057852141559 -0.070925310254 -0.070294417441 -0.079948693514
          -0.068915575743 -0.079958297312 -0.064690500498 -0.071508176625 -0.046838060021 -0.044239219278
          -0.057882104069 -0.035795897245 -0.057874407619 -0.051045853645 -0.057889401913 -0.035787343979
          -0.044213674963 -0.057858746499 -0.071532733738 -0.080834932625 -0.069357223809 -0.080845996737
          -0.064963400364 -0.072055667639 -0.046397648752 -0.043695289642 -0.057883050293 -0.034914921969
          -0.057875078171 -0.050773564726 -0.057891078293 -0.034905828536 -0.043668713421 -0.057858876884
          -0.072081066668 -0.081632375717 -0.069757573307 -0.081643626094 -0.065211042762 -0.072548620403
          -0.046001173556 -0.043205339462 -0.057885162532 -0.034120131284 -0.057876691222 -0.050528787076
          -0.057893618941 -0.034110609442 -0.043177507818 -0.057859882712 -0.072575397789 -0.082344993949
          -0.0701148808 -0.08235681057 -0.065432041883 -0.072989098728 -0.045646991581 -0.042767837644
          -0.057887077332 -0.033410556614 -0.057878229767 -0.050310049206 -0.057895921171 -0.033400446177
          -0.042738638818 -0.057860478759 -0.073017247021 -0.082975380123 -0.070431098342 -0.082987651229
          -0.065627574921 -0.073378682137 -0.045333757997 -0.042380951345 -0.057888824493 -0.032782930881