<VTKFile type="UnstructuredGrid" version="1.0" byte_order="LittleEndian" header_type="UInt64">
  <UnstructuredGrid>
    <Piece NumberOfPoints="791" NumberOfCells="973">
      <PointData>
        <DataArray type="Float32" Name="ux" format="ascii" RangeMin="-1.0893568993" RangeMax="0">
          -0.095213018358 -0.10350165516 -0.10719302297 -0.093703463674 -0.095283098519 -0.10723083466
          -0.10353705287 -0.094845481217 -0.10079349577 -0.096033908427 -0.093256592751 -0.10086620599
          -0.094909332693 -0.096045598388 -0.10206433386 -0.097012072802 -0.10214094073 -0.097053602338
          -0.1119986102 -0.10019572824 -0.11199126393 -0.11160025746 -0.1115988642 -0.11303953081
          -0.10142605752 -0.11302974075 -0.092447839677 -0.20931085944 -0.20888391137 -0.20881026983
          -0.17117723823 -0.17078237236 -0.1706712991 -0.2093129456 -0.17122149467 -0.20963701606
          -0.17152000964 -0.20888359845 -0.20833542943 -0.20857444406 -0.17081566155 -0.17027534544
          -0.17048843205 -0.20880702138 -0.17077183723 -0.20899091661 -0.17090925574 -0.2093077302
          -0.17124000192 -0.208132267 -0.17003624141 -0.20929428935 -0.17125856876 -0.20961609483
          -0.17156715691 -0.20973369479 -0.17165486515 -0.20833222568 -0.17020276189 -0.24896390736
          -0.24855709076 -0.24847334623 -0.24898016453 -0.2492915839 -0.24856115878 -0.24802860618
          -0.24825750291 -0.24848751724 -0.24866563082 -0.24897859991 -0.24782720208 -0.24896426499
          -0.2492851615 -0.24939776957 -0.24801136553 -0.29005479813 -0.28965637088 -0.289570719
          -0.29007545114 -0.2903843224 -0.28966155648 -0.28913736343 -0.28936553001 -0.28958445787
          -0.28976559639 -0.29007434845 -0.28894382715 -0.29005399346 -0.29037666321 -0.29049247503
          -0.28912314773 -0.33241850138 -0.33202823997 -0.33194047213 -0.33244216442 -0.33274841309
          -0.33203074336 -0.33151733875 -0.33174204826 -0.33195081353 -0.33213534951 -0.33243981004
          -0.33133023977 -0.33241388202 -0.33273881674 -0.33285617828 -0.33150362968 -0.37592953444
          -0.37554109097 -0.37545031309 -0.37595853209 -0.37626567483 -0.37554362416 -0.37503013015
          -0.37525641918 -0.37546002865 -0.37564989924 -0.3759559691 -0.37484592199 -0.37592580914
          -0.37625655532 -0.37637743354 -0.37501674891 -0.42047563195 -0.42008855939 -0.419993788
          -0.42050993443 -0.42081964016 -0.42009189725 -0.41957452893 -0.41980433464 -0.42000439763
          -0.42019966245 -0.42050868273 -0.4193932116 -0.42047396302 -0.42081290483 -0.42093622684
          -0.41956332326 -0.4659653008 -0.4655764699 -0.46547889709 -0.46600395441 -0.46631705761
          -0.46557945013 -0.46505522728 -0.46528974175 -0.46548625827 -0.46569004655 -0.46600392461
          -0.46487560868 -0.46596497297 -0.46631366014 -0.46644046903 -0.46504697204 -0.51231396198
          -0.51191788912 -0.51181530952 -0.51235878468 -0.51268070936 -0.511918962 -0.51137912273
          -0.51162385941 -0.51181805134 -0.51203471422 -0.51235872507 -0.51120120287 -0.51231437922
          -0.51268130541 -0.51281327009 -0.51137667894 -0.5594304204 -0.55902814865 -0.55892020464
          -0.55948323011 -0.55981403589 -0.55902838707 -0.55847191811 -0.55872732401 -0.55891889334
          -0.55914920568 -0.55948406458 -0.55829393864 -0.55943387747 -0.55981856585 -0.5599566102
          -0.55847364664 -0.60720974207 -0.60680425167 -0.60669153929 -0.60726863146 -0.6076053977
          -0.60680437088 -0.60623729229 -0.60650032759 -0.60668897629 -0.60692924261 -0.60727071762
          -0.60606151819 -0.60721594095 -0.60761231184 -0.60775417089 -0.60624343157 -0.655562222
          -0.65515238047 -0.65503615141 -0.65562576056 -0.65596824884 -0.65515094995 -0.65457600355
          -0.65484458208 -0.65503025055 -0.65528005362 -0.65562790632 -0.65440195799 -0.65556710958
          -0.65597712994 -0.65612345934 -0.65458446741 -0.70439273119 -0.70397800207 -0.70385354757
          -0.70446360111 -0.70481401682 -0.70397567749 -0.70338845253 -0.70366418362 -0.70384758711
          -0.70410883427 -0.70446509123 -0.7032135725 -0.70439702272 -0.70482283831 -0.70497715473
          -0.70339798927 -0.7535789609 -0.75315988064 -0.75303053856 -0.75365591049 -0.75401377678
          -0.75315970182 -0.75256621838 -0.75284570456 -0.75302809477 -0.7532954216 -0.75365811586
          -0.75239169598 -0.75358521938 -0.75402128696 -0.75418156385 -0.75257319212 -0.80301219225
          -0.80259209871 -0.80245834589 -0.80309200287 -0.80345314741 -0.80259174109 -0.80199718475
          -0.80227714777 -0.80245661736 -0.80272901058 -0.80309462547 -0.80182284117 -0.80301606655
          -0.80345886946 -0.80362319946 -0.80200225115 -0.85261499882 -0.85219120979 -0.85205489397
          -0.85269761086 -0.8530638814 -0.85219150782 -0.85159343481 -0.85187542439 -0.85205322504
          -0.85233092308 -0.85269743204 -0.85141682625 -0.85261541605 -0.85306590796 -0.85323566198
          -0.85159546137 -0.90231955051 -0.90189278126 -0.90175145864 -0.90240514278 -0.90277671814
          -0.90189152956 -0.90128904581 -0.90157347918 -0.90175074339 -0.90203356743 -0.90240460634
          -0.90111297369 -0.90231829882 -0.90277534723 -0.90295010805 -0.90128934383 -0.95205885172
          -0.95162713528 -0.95148301125 -0.95214766264 -0.95252400637 -0.95162701607 -0.95101708174
          -0.95130503178 -0.95148313046 -0.95177078247 -0.95214754343 -0.95083892345 -0.95205837488
          -0.95252430439 -0.95270127058 -0.95101630688 -1.0017982721 -1.0013619661 -1.0012153387
          -1.0018883944 -1.0022702217 -1.0013611317 -1.0007437468 -1.0010353327 -1.0012148619
          -1.0015076399 -1.0018885136 -1.0005639791 -1.0017982721 -1.0022701025 -1.0024507046
          -1.0007443428 -1.0515315533 -1.0510928631 -1.0509469509 -1.05162251 -1.0520050526
          -1.0510931015 -1.05047369 -1.0507662296 -1.0509471893 -1.0512394905 -1.0516220331
          -1.0502929688 -1.0515319109 -1.0520042181 -1.0521854162 -1.0504739285 -0.12112419307
          -0.12673714757 -0.12063501775 -0.12943181396 -0.12606146932 -0.13857859373 -0.13947297633
          -0.13238582015 -0.14443467557 -0.13278226554 -0.13674409688 -0.13196870685 -0.14489881694
          -0.14071683586 -0.13351918757 -0.12480388582 -0.12111411244 -0.1226593703 -0.12981569767
          -0.11237809062 -0.11811479926 -0.13027749956 -0.12382581085 -0.17268969119 -0.17237728834
          -0.17230461538 -0.21225619316 -0.2119000107 -0.21186576784 -0.17271254957 -0.2122335434
          -0.17293310165 -0.21249002218 -0.17240044475 -0.17195178568 -0.17213077843 -0.21188527346
          -0.2114213258 -0.2116317749 -0.17238089442 -0.21182659268 -0.17247068882 -0.21197429299
          -0.17273594439 -0.2122284621 -0.17175482213 -0.21126097441 -0.17278338969 -0.21223294735
          -0.17300574481 -0.21247948706 -0.17304207385 -0.21255797148 -0.17191115022 -0.21145656705
          -0.2535032928 -0.25315922499 -0.25310891867 -0.25349959731 -0.25375053287 -0.25315383077
          -0.25269547105 -0.25289800763 -0.25309711695 -0.25324064493 -0.25350043178 -0.25252908468
          -0.25350397825 -0.25375801325 -0.25383365154 -0.25270745158 -0.2963372767 -0.29599484801
          -0.29594007134 -0.29633843899 -0.29659363627 -0.29599055648 -0.29553443193 -0.29573711753
          -0.29592692852 -0.29607838392 -0.2963386476 -0.29537281394 -0.2963334024 -0.29659470916
          -0.29667842388 -0.29554623365 -0.34058558941 -0.34024560452 -0.340185076 -0.34059152007
          -0.34084838629 -0.34024187922 -0.33979305625 -0.33999240398 -0.34017726779 -0.34033101797
          -0.34058886766 -0.33963194489 -0.34057852626 -0.34084427357 -0.34093496203 -0.339797616
          -0.38610744476 -0.38577142358 -0.38570544124 -0.38611742854 -0.38637655973 -0.38576942682
          -0.38533040881 -0.3855240941 -0.38570308685 -0.38585785031 -0.38611289859 -0.38517072797
          -0.3860951364 -0.38636291027 -0.38646122813 -0.3853264153 -0.4327685833 -0.43243581057
          -0.43236526847 -0.43278282881 -0.43304255605 -0.43243566155 -0.43200516701 -0.43219459057
          -0.43236815929 -0.43252432346 -0.43277737498 -0.43184798956 -0.43275290728 -0.43302348256
          -0.43312689662 -0.43199428916 -0.48042371869 -0.48009908199 -0.48002550006 -0.48044109344
          -0.48069825768 -0.48009821773 -0.47968021035 -0.47986444831 -0.48002961278 -0.4801864028
          -0.48043492436 -0.47952842712 -0.48040518165 -0.48067590594 -0.48078262806 -0.47966775298
          -0.5289414525 -0.52862489223 -0.52854812145 -0.52896523476 -0.52921962738 -0.52862417698
          -0.52821308374 -0.52839493752 -0.52855223417 -0.52871191502 -0.52895772457 -0.52806514502
          -0.52892357111 -0.5291967392 -0.52930557728 -0.52819907665 -0.5781878829 -0.5778773427
          -0.57779723406 -0.57821702957 -0.57847034931 -0.57787716389 -0.57746905088 -0.5776514411
          -0.57780188322 -0.57796615362 -0.57821124792 -0.57732605934 -0.57817322016 -0.57845026255
          -0.57856053114 -0.57745581865 -0.62802815437 -0.62772542238 -0.62764281034 -0.62806236744
          -0.62831157446 -0.62772643566 -0.62732511759 -0.62750536203 -0.62764930725 -0.62781476974
          -0.62805747986 -0.62718778849 -0.62801676989 -0.6282954216 -0.62840610743 -0.62731301785
          -0.67835372686 -0.67805951834 -0.6779769659 -0.678391397 -0.67863547802 -0.67805951834
          -0.67766660452 -0.67784452438 -0.67798101902 -0.67814832926 -0.67838710546 -0.67753511667
          -0.67834210396 -0.67862153053 -0.6787314415 -0.67765665054 -0.72907727957 -0.72878956795
          -0.72870510817 -0.72911900282 -0.72936034203 -0.72878825665 -0.7283976078 -0.72857689857
          -0.72870600224 -0.72887706757 -0.72911399603 -0.72827136517 -0.72906672955 -0.72934836149
          -0.72945809364 -0.72839134932 -0.78009700775 -0.77981311083 -0.77972638607 -0.78014278412
          -0.78038406372 -0.77981245518 -0.77942240238 -0.77960264683 -0.77972793579 -0.77990227938
          -0.78014039993 -0.77930009365 -0.78009086847 -0.7803760767 -0.78048706055 -0.77941817045
          -0.83133345842 -0.83105129004 -0.83096319437 -0.83138257265 -0.83162248135 -0.83105105162
          -0.83066153526 -0.83084261417 -0.83096498251 -0.83114129305 -0.83138012886 -0.8305414319
          -0.83132833242 -0.83161664009 -0.8317284584 -0.83065783978 -0.88272017241 -0.88243687153
          -0.88234633207 -0.88277280331 -0.88301694393 -0.88243746758 -0.88204294443 -0.88222724199
          -0.88234752417 -0.88252931833 -0.88277161121 -0.88192397356 -0.88271772861 -0.88301336765
          -0.88312703371 -0.8820400238 -0.934217453 -0.93393027782 -0.93383651972 -0.93427360058
          -0.93452244997 -0.93393141031 -0.93352746964 -0.93371683359 -0.93383771181 -0.93402534723
          -0.93427336216 -0.93340677023 -0.93421715498 -0.93452161551 -0.93463790417 -0.93352586031
          -0.98577111959 -0.98548173904 -0.98538523912 -0.98583054543 -0.98608243465 -0.98548263311
          -0.98507368565 -0.98526597023 -0.98538732529 -0.98557841778 -0.98583126068 -0.98495358229
          -0.98577302694 -0.98608350754 -0.98620140553 -0.98507320881 -1.0373467207 -1.0370571613
          -1.0369600058 -1.0374060869 -1.0376595259 -1.0370573997 -1.0366475582 -1.0368415117
          -1.0369615555 -1.0371541977 -1.0374075174 -1.0365277529 -1.0373481512 -1.037660718
          -1.0377795696 -1.036648035 -1.0889259577 -1.088637352 -1.0885411501 -1.0889856815
          -1.0892374516 -1.0886377096 -1.088228941 -1.0884217024 -1.0885410309 -1.0887340307
          -1.08898592 -1.0881102085 -1.0889275074 -1.0892387629 -1.0893568993 -1.0882291794
          -0.12109573931 -0.12693810463 -0.12067841738 -0.12962780893 -0.12609398365 -0.13910409808
          -0.14010162652 -0.13278791308 -0.14514800906 -0.1331282258 -0.13714566827 -0.13241758943
          -0.14555342495 -0.14118137956 -0.13373987377 -0.12503737211 -0.12118369341 -0.122757487
          -0.12998272479 -0.11238442361 -0.11815534532 -0.1304358691 -0.12391857058 -0.061371527612
          -0.061140097678 -0.061431199312 -0.06200665608 -0.061690397561 -0.061946969479 -0.061916891485
          -0.06228094548 -0.062064554542 -0.062168259174 -0.062190901488 -0.062109898776 -0.06226919964
          -0.037799540907 -0.03772553429 -0.037850230932 -0.038250185549 -0.037963055074 -0.038211658597
          -0.038117229939 -0.038458250463 -0.038246866316 -0.038409359753 -0.038437500596 -0.038460850716
          -0.03846155107 -0.020387299359 -0.020297462121 -0.020440636203 -0.020814195275 -0.02052873373
          -0.02077315934 -0.020647255704 -0.020957138389 -0.020735323429 -0.020832343027 -0.020862830803
          -0.020833125338 -0.020961692557 -0.0086109871045 -0.008547318168 -0.0086629213765 -0.0089800786227
          -0.0087136477232 -0.0089394431561 -0.0087992893532 -0.0090678734705 -0.0088505977765 -0.0089093828574
          -0.0089380238205 -0.0089017674327 -0.0090713854879 -0.0019561331719 -0.0018994279671 -0.0020165140741
          -0.0023404788226 -0.0020129443146 -0.0022930609994 -0.0020616953261 -0.0023716143332 -0.0020822121296
          -0.0021141965408 -0.0021457858384 -0.0020772935823 -0.0023733428679 0 0
          0 0 0 0 0 0
          0 0 0 0 0
        </DataArray>
        <DataArray type="Float32" Name="uy" format="ascii" RangeMin="-4.2087842303e-05" RangeMax="0.10248432308">
          0.010609007441 0.011524452828 0.011764480732 0.0099266506732 0.0095434635878 0.010850713588
          0.010408758186 0.010690474883 0.011453200132 0.010648720898 0.0099449232221 0.010102019645
          0.009487029165 0.0098833730444 0.011188947596 0.010549080558 0.010314594023 0.0099253281951
          0.012414864264 0.010708135553 0.011344484985 0.012423664331 0.011353032663 0.011476675048
          0.010678785853 0.012303168885 0.0098259123042 0.01902843453 0.019360745326 0.01894820109
          0.015028226189 0.015379164368 0.01496558357 0.019536238164 0.015543803573 0.019348844886
          0.015350112692 0.020143816248 0.020293392241 0.019756535068 0.016170119867 0.016325652599
          0.01578355208 0.020550686866 0.016585510224 0.019753407687 0.015772549435 0.019969677553
          0.015987474471 0.019764836878 0.015787856653 0.020467085764 0.016494296491 0.020155975595
          0.016176691279 0.019755415618 0.015769882128 0.019224539399 0.015246975236 0.023157799616
          0.023490477353 0.023088628426 0.023658214137 0.023471428081 0.02425586991 0.024396458641
          0.023877386004 0.024652933702 0.023873770609 0.024088146165 0.023883175105 0.024580467492
          0.024276902899 0.023877466097 0.023361256346 0.027429034933 0.027759574354 0.027365671471
          0.027924183756 0.027735533193 0.028513630852 0.028648611158 0.028140168637 0.028902284801
          0.028137477115 0.028350669891 0.028146598488 0.028837390244 0.028540126979 0.028141591698
          0.027636177838 0.031834334135 0.03216477856 0.031777832657 0.032323490828 0.032134849578
          0.032904695719 0.033034812659 0.032539058477 0.033286515623 0.03253499791 0.032746676356
          0.032545868307 0.033228300512 0.032937515527 0.032539770007 0.032046545297 0.03638266772
          0.036717176437 0.036332175136 0.036874473095 0.036682546139 0.037457887083 0.037584245205
          0.037091709673 0.037838943303 0.037088736892 0.037301208824 0.037098374218 0.037785753608
          0.03749647364 0.037092261016 0.036603327841 0.041082706302 0.04142267257 0.041037224233
          0.041579913348 0.041382446885 0.042168345302 0.042291201651 0.041799176484 0.042550276965
          0.041796155274 0.042011506855 0.041803885251 0.042501557618 0.042210720479 0.04179957509
          0.041309945285 0.045903097838 0.04625050351 0.045861255378 0.04640737921 0.046203061938
          0.047006241977 0.047125097364 0.04662944749 0.047392394394 0.046628549695 0.046848479658
          0.04663361609 0.047348607332 0.04705318436 0.046629875898 0.046136781573 0.05078677088
          0.05114607513 0.050748866051 0.051305532455 0.051090758294 0.051921378821 0.052038259804
          0.051535010338 0.052317865193 0.051533889025 0.051761191338 0.05153613165 0.052279796451
          0.051974836737 0.051532782614 0.051032662392 0.055678095669 0.056052878499 0.055645894259
          0.056213609874 0.055987473577 0.056852150708 0.056966807693 0.056452270597 0.057260449976
          0.056451790035 0.056687664241 0.056450936943 0.057226609439 0.056911632419 0.056447889656
          0.055936973542 0.060531858355 0.060914691538 0.060503199697 0.06107750535 0.060844492167
          0.061726626009 0.061837699264 0.061318896711 0.062140710652 0.061320133507 0.061561454087
          0.061315212399 0.062111515552 0.061790902168 0.061314977705 0.060799010098 0.065292537212
          0.06568480283 0.065269485116 0.065847679973 0.065606616437 0.066508874297 0.066618651152
          0.066095143557 0.066929981112 0.066095940769 0.066342495382 0.066091552377 0.066906154156
          0.0665794909 0.066089652479 0.065569803119 0.069933108985 0.070338636637 0.069915294647
          0.070504285395 0.070253759623 0.071182847023 0.071291007102 0.070758588612 0.071610704064
          0.07075958699 0.071014478803 0.070754490793 0.071592636406 0.071261368692 0.070754230022
          0.070224694908 0.074463613331 0.074879169464 0.074451290071 0.075045950711 0.074788816273
          0.075734309852 0.075840324163 0.075304329395 0.076166525483 0.075306728482 0.07556668669
          0.075301170349 0.076154045761 0.075821459293 0.075302705169 0.074767448008 0.078903771937
          0.079325050116 0.078894846141 0.07949103415 0.079231150448 0.080183118582 0.080287784338
          0.079752273858 0.08061606437 0.079753279686 0.080016300082 0.079750277102 0.080607667565
          0.080275267363 0.079751707613 0.079216338694 0.083281539381 0.08371014148 0.083275847137
          0.083877235651 0.083612777293 0.084577098489 0.084681399167 0.084142789245 0.085011720657
          0.084143720567 0.084410056472 0.08414144069 0.08500661701 0.084673829377 0.084142223001
          0.083603277802 0.087633624673 0.088068917394 0.087631113827 0.088236927986 0.087967768312
          0.088943175972 0.089047394693 0.088506259024 0.089380711317 0.088506758213 0.088775612414
          0.088505476713 0.089378073812 0.089043870568 0.088505841792 0.087964043021 0.091975994408
          0.092418886721 0.091975934803 0.092587888241 0.092314600945 0.093304529786 0.093409486115
          0.092861436307 0.093747489154 0.092861361802 0.093134991825 0.092862263322 0.0937467888
          0.093408130109 0.092861317098 0.092314183712 0.096325315535 0.096773728728 0.096325367689
          0.096945159137 0.096668474376 0.097670279443 0.097776606679 0.097222089767 0.098118700087
          0.097222536802 0.097499422729 0.097223080695 0.098118461668 0.097776293755 0.097222685814
          0.096667937934 0.10068687052 0.10113681853 0.10068722069 0.10130848736 0.10103021562
          0.10203469545 0.1021405682 0.10158543289 0.10248432308 0.10158555955 0.10186310858
          0.10158512741 0.10248428583 0.10214070976 0.10158602148 0.10103080422 0.010488205589
          0.01135748066 0.010400449857 0.011735510081 0.011215077713 0.013206307776 0.013496520929
          0.012296258472 0.014151086099 0.01228370145 0.012818943709 0.012302014045 0.014046579599
          0.013321921229 0.012273328379 0.011092946865 0.012387512252 0.012638183311 0.013405417092
          0.011402511038 0.012034382671 0.01336062327 0.0126134241 0.021178921685 0.020927410573
          0.021256478503 0.025598330423 0.025352764875 0.025692386553 0.020789342001 0.025200523436
          0.020924784243 0.025337949395 0.020294863731 0.020168159157 0.020613458008 0.024709366262
          0.02458421886 0.02503660135 0.019950890914 0.024365004152 0.020615983754 0.025031153113
          0.020451340824 0.024857517332 0.020626461133 0.025043429807 0.020048351958 0.024451935664
          0.020321231335 0.024720145389 0.020624127239 0.025032218546 0.021060450003 0.025492697954
          0.030169527978 0.029913559556 0.030251098797 0.029765890911 0.029909458011 0.029271829873
          0.029153557494 0.029597824439 0.028931550682 0.029593342915 0.029417624697 0.02960479632
          0.029007218778 0.029272150248 0.029593242332 0.030045997351 0.034854367375 0.034592229873
          0.034927841276 0.034446395934 0.034595433623 0.03395235166 0.033836625516 0.03427515924
          0.033614147455 0.034271739423 0.034094702452 0.034279678017 0.033682648093 0.033943738788
          0.034271009266 0.034717477858 0.03961950168 0.039353016764 0.039685882628 0.039208799601
          0.039360783994 0.03871499002 0.038602758199 0.039035201073 0.038383152336 0.039033267647
          0.038853950799 0.039037771523 0.03844422102 0.038699079305 0.039028380066 0.03947044909
          0.044376283884 0.044104572386 0.044435217977 0.043963607401 0.044116817415 0.043474640697
          0.043364658952 0.043788079172 0.043149486184 0.043788079172 0.043608609587 0.043786715716
          0.043203327805 0.043448645622 0.04377874732 0.044213965535 0.04902137816 0.048747524619
          0.049074232578 0.048608832061 0.048762355 0.048126004636 0.048018220812 0.048434477299
          0.047808580101 0.048434119672 0.048255451024 0.048430018127 0.047855626792 0.048092849553
          0.048421297222 0.048849280924 0.053462643176 0.053188782185 0.053507708013 0.053055096418
          0.053208187222 0.052582293749 0.05247971043 0.052882995456 0.052273508161 0.052883084863
          0.052706025541 0.052875649184 0.052313994616 0.052542991936 0.052868183702 0.053283896297
          0.057669088244 0.057393886149 0.057706870139 0.057263899595 0.057419829071 0.056794121861
          0.056696522981 0.057089813054 0.056491170079 0.057091847062 0.056915763766 0.057083390653
          0.056524854153 0.0567503497 0.057078294456 0.057483620942 0.06164368242 0.061366699636
          0.061675958335 0.061240117997 0.061398848891 0.060771536082 0.060678336769 0.061066199094
          0.060471579432 0.06106710434 0.060891259462 0.061059046537 0.06050009653 0.060723207891
          0.061054538935 0.061451841146 0.065400198102 0.065123431385 0.065426267684 0.065000846982
          0.065161310136 0.064537845552 0.064449518919 0.064827769995 0.064243748784 0.06482950598
          0.064654126763 0.064822413027 0.064266480505 0.064485922456 0.064817808568 0.06520434469
          0.068965017796 0.068690806627 0.068986088037 0.068572863936 0.068733468652 0.068117946386
          0.06803484261 0.06840223819 0.067830741405 0.0684030056 0.068231061101 0.068397454917
          0.067849189043 0.068065300584 0.068395406008 0.068768337369 0.07238996774 0.072116091847
          0.072405904531 0.072001107037 0.072163723409 0.071548677981 0.071470066905 0.071830198169
          0.071263834834 0.071831390262 0.071659840643 0.071827448905 0.071278207004 0.071493349969
          0.07182572037 0.072190359235 0.075712300837 0.075435832143 0.075723946095 0.075322091579
          0.075488507748 0.074868232012 0.074793130159 0.075150482357 0.074584923685 0.075150825083
          0.074978582561 0.07514809072 0.074595011771 0.074810050428 0.075146757066 0.075507968664
          0.078962497413 0.078684419394 0.078970804811 0.078573167324 0.078742623329 0.078119248152
          0.078046761453 0.078400745988 0.077836543322 0.07840115577 0.078228801489 0.078398555517
          0.077843546867 0.078058212996 0.078398741782 0.078754931688 0.082173809409 0.081890232861
          0.082179240882 0.081778861582 0.081952042878 0.081317216158 0.081246085465 0.081602878869
          0.081031158566 0.081603810191 0.081428252161 0.081601530313 0.081036351621 0.081254355609
          0.081601500511 0.081960171461 0.085343323648 0.08505217731 0.085346110165 0.084939271212
          0.085118144751 0.084464758635 0.084392465651 0.084758169949 0.084170512855 0.084758713841
          0.084578245878 0.084757350385 0.084173850715 0.084398694336 0.084758140147 0.08512301743
          0.088490858674 0.088194459677 0.08849208802 0.088080644608 0.088263623416 0.087599925697
          0.087529115379 0.087897352874 0.087301805615 0.08789716661 0.08771391958 0.087898097932
          0.087303720415 0.087531641126 0.087897256017 0.088265746832 0.091643564403 0.091346912086
          0.091643638909 0.091232962906 0.091416046023 0.090751588345 0.090680882335 0.091049574316
          0.090453505516 0.091049700975 0.090865679085 0.091050133109 0.090453520417 0.09068197757
          0.091049142182 0.091417424381 0.094791576266 0.09449634701 0.094791658223 0.094383686781
          0.094565838575 0.093904823065 0.093834683299 0.094200402498 0.093607969582 0.09420016408
          0.094017721713 0.094200633466 0.093607880175 0.093834415078 0.09420029819 0.094565495849
          0.014821440913 0.01534990035 0.014936132357 0.015483162366 0.01514367573 0.016183756292
          0.016214342788 0.015768293291 0.016564074904 0.015772359446 0.016070578247 0.015777606517
          0.016688551754 0.016414934769 0.015791511163 0.015316023491 0.0132225696 0.013387828134
          0.014053172432 0.012354085222 0.012882212177 0.014139968902 0.013479126617 0.0060972692445
          0.0066007706337 0.0070914127864 0.0071574631147 0.0065841157921 0.0059862993658 0.0065788845532
          0.0069015258923 0.0065774703398 0.0066547906026 0.0065035051666 0.0065803918988 0.0062317913398
          0.0036558371503 0.0040562837385 0.0044305408373 0.0044692493975 0.004026953131 0.0035608415492
          0.0040194806643 0.0042552063242 0.0040195295587 0.0040724123828 0.003983667586 0.0040375189856
          0.003763284767 0.0018209428526 0.0021716249175 0.0024989459198 0.0024957947899 0.0021443967707
          0.0017673845869 0.0021367503796 0.0022707376629 0.0021374267526 0.0021203928627 0.0021692540031
          0.002153940266 0.0019815431442 0.0006258484209 0.0009144001524 0.001179833198 0.0011480986141
          0.00088802137179 0.00060224049957 0.00088025256991 0.00093178357929 0.00088054459775 0.00081773597049
          0.00095828564372 0.00089624483371 0.000807607139 -4.2087842303e-05 0.00023977945966 0.00049260718515
          0.00040587678086 0.00020635595138 -2.0728139134e-05 0.00019621732645 0.00013800578017 0.00019633150077
          4.0117567551e-05 0.00036952938535 0.00021482870216 0.0002306879469 0 0
          0 0 0 0 0 0
          0 0 0 0 0
        </DataArray>
        <DataArray type="Float32" Name="uz" format="ascii" RangeMin="-0.088228516281" RangeMax="0.085096478462">
          -0.014876773581 -0.014748573303 -0.013016602956 0.00028423423646 0.015188022517 0.01384830568
          0.01342425961 -0.015899475664 -0.016817105934 -0.010977333412 -0.00098671938758 0.012626449578
          0.014149166644 0.0075609604828 -0.01330954954 -0.0082635469735 0.016032256186 0.01026059594
          -0.013672947884 -0.0020478300285 0.010985137895 -0.014658018947 0.010024975054 0.013909098692
          0.0013390863314 -0.010699625127 -0.00035209476482 0.07933357358 0.067872159183 0.077929534018
          0.078463666141 0.067493394017 0.077097803354 0.065176457167 0.064914122224 0.072530530393
          0.071955688298 0.047088757157 0.043141998351 0.056695569307 0.047583501786 0.043794333935
          0.056765429676 0.036335173994 0.037322238088 0.057832274586 0.057869680226 0.05233277753
          0.052602533251 0.055558405817 0.05566187948 0.03774478659 0.038674674928 0.046828445047
          0.047342516482 0.060114543885 0.060054801404 0.068842597306 0.06839800626 0.080147460103
          0.068253599107 0.078690655529 0.065446607769 0.073077268898 0.046655140817 0.042559787631
          0.056639939547 0.03548547253 0.057818677276 0.052098333836 0.055461764336 0.036944068968
          0.046374715865 0.060177188367 0.069261498749 0.080877974629 0.068583913147 0.079373538494
          0.06568300724 0.073568992317 0.046264577657 0.042033430189 0.056582897902 0.034724276513
          0.057800430804 0.051889616996 0.055365059525 0.036230776459 0.045974511653 0.06023709476
          0.06962762773 0.081534676254 0.068880856037 0.079979881644 0.065902151167 0.074019365013
          0.045914188027 0.041553754359 0.056527312845 0.034038357437 0.057786356658 0.051708240062
          0.055268380791 0.035594757646 0.045626826584 0.060303919017 0.069946281612 0.082130037248
          0.069145515561 0.080521114171 0.066102661192 0.074436321855 0.045594509691 0.041108340025
          0.056469976902 0.033413048834 0.057772021741 0.051548279822 0.055167496204 0.035024162382
          0.04532200098 0.060376159847 0.070222258568 0.082670383155 0.069384969771 0.081012159586
          0.066284097731 0.074812345207 0.045304715633 0.040704391897 0.056418258697 0.032846663147
          0.057758335024 0.051401797682 0.055076669902 0.03450543806 0.045045137405 0.06044042483
          0.070472672582 0.083155706525 0.069604530931 0.081464439631 0.06644257158 0.075142107904
          0.045043732971 0.040351483971 0.056379310787 0.032337456942 0.057747013867 0.051264155656
          0.055009447038 0.034030295908 0.044780820608 0.060484103858 0.070713035762 0.08358823508
          0.069807715714 0.081881090999 0.066577471793 0.07542116195 0.044813521206 0.04005324468
          0.05635689199 0.031885832548 0.057737223804 0.051130704582 0.054974410683 0.033594503999
          0.044523648918 0.060499243438 0.070951409638 0.083961606026 0.069994360209 0.08226108551
          0.066685721278 0.075644403696 0.044616624713 0.039817631245 0.056354705244 0.031498838216
          0.057730473578 0.051001824439 0.054978117347 0.033200394362 0.04427152127 0.0604833588
          0.071190148592 0.084274366498 0.070160701871 0.082598634064 0.066766612232 0.07581064105
          0.044452343136 0.039641797543 0.056369692087 0.03117544204 0.057725217193 0.050877302885
          0.055013820529 0.032852437347 0.044028293341 0.060437120497 0.071421824396 0.084534786642