<VTKFile type="UnstructuredGrid" version="1.0" byte_order="LittleEndian" header_type="UInt64">
  <UnstructuredGrid>
    <Piece NumberOfPoints="791" NumberOfCells="973">
      <PointData>
        <DataArray type="Float32" Name="ux" format="ascii" RangeMin="-0.78911149502" RangeMax="1.5877614021">
          0.1041637212 0.080665268004 0.072301208973 0.10675768554 0.10175547004 0.072851322591
          0.078264810145 0.10310187191 0.088351324201 0.097961694002 0.10451156646 0.080093920231
          0.099244095385 0.096248134971 0.087809808552 0.10134599358 0.091588743031 0.10056252778
          0.056094925851 0.087277881801 0.053571879864 0.05640900135 0.050076305866 0.063930220902
          0.093226984143 0.056945811957 0.10741879046 -0.14893241227 -0.14898492396 -0.14897234738
          -0.07924759388 -0.074876271188 -0.073971547186 -0.14884823561 -0.079032443464 -0.14872667193
          -0.082618802786 -0.14943023026 -0.15043511987 -0.14955300093 -0.075124397874 -0.072721593082
          -0.073050603271 -0.14987704158 -0.074536673725 -0.14893718064 -0.076108209789 -0.14836457372
          -0.07785461843 -0.15020276606 -0.070459142327 -0.14881788194 -0.075990766287 -0.14810551703
          -0.07829913497 -0.14843912423 -0.081875354052 -0.1496719569 -0.070424050093 -0.22430706024
          -0.22869896889 -0.23048400879 -0.22297608852 -0.21844834089 -0.22871483862 -0.23447561264
          -0.23195970058 -0.23011282086 -0.22710844874 -0.22349369526 -0.23667652905 -0.22487963736
          -0.21957401931 -0.21695846319 -0.23536846042 -0.30492582917 -0.31362745166 -0.31665486097
          -0.30367317796 -0.29588130116 -0.31340569258 -0.32295802236 -0.31906035542 -0.3153976202
          -0.31096848845 -0.30469989777 -0.32748070359 -0.306992203 -0.29875329137 -0.29375866055
          -0.3256816864 -0.38661202788 -0.40179777145 -0.40702706575 -0.38510149717 -0.37141823769
          -0.40134993196 -0.41765341163 -0.41137212515 -0.40461406112 -0.39728015661 -0.38657698035
          -0.42522192001 -0.39023911953 -0.37673655152 -0.36895900965 -0.42209294438 -0.46612530947
          -0.49214708805 -0.5007289052 -0.46304047108 -0.44066506624 -0.49176946282 -0.52243262529
          -0.50940954685 -0.49810659885 -0.48438918591 -0.46494668722 -0.53456181288 -0.47085246444
          -0.44730401039 -0.43471300602 -0.527536273 -0.54219824076 -0.57537764311 -0.58666592836
          -0.53747224808 -0.5088430047 -0.57502537966 -0.61604696512 -0.59841781855 -0.58359694481
          -0.56492227316 -0.53925698996 -0.63178360462 -0.54607069492 -0.51454824209 -0.49934408069
          -0.62140798569 -0.61330717802 -0.64918833971 -0.6606965661 -0.60762894154 -0.57690989971
          -0.6475585103 -0.69397127628 -0.67389416695 -0.65688806772 -0.63729715347 -0.60830783844
          -0.71111673117 -0.61467522383 -0.58042311668 -0.56552278996 -0.69896906614 -0.65777701139
          -0.69830566645 -0.71072763205 -0.65158164501 -0.61758077145 -0.69736731052 -0.7517760396
          -0.72749441862 -0.70847183466 -0.68547266722 -0.6521217823 -0.77029830217 -0.65874791145
          -0.61959123611 -0.60382175446 -0.7546505332 -0.66298240423 -0.70814377069 -0.72150731087
          -0.65587794781 -0.61788958311 -0.70741271973 -0.76931381226 -0.74100744724 -0.72065895796
          -0.69370961189 -0.65618765354 -0.78911149502 -0.66338002682 -0.61888980865 -0.60171818733
          -0.77050119638 -0.6244725585 -0.67134326696 -0.68518453836 -0.61672776937 -0.5770893693
          -0.67104035616 -0.73648357391 -0.70613175631 -0.68488007784 -0.65636718273 -0.61670666933
          -0.75659507513 -0.62413138151 -0.57736760378 -0.55981040001 -0.73646914959 -0.54023975134
          -0.5868076086 -0.60082942247 -0.53252881765 -0.49314546585 -0.58652490377 -0.65144306421
          -0.62128502131 -0.60018646717 -0.57173639536 -0.53215318918 -0.67147654295 -0.53947591782
          -0.49253794551 -0.47561940551 -0.65154147148 -0.4149004221 -0.46242511272 -0.47742024064
          -0.40624797344 -0.36589819193 -0.46202465892 -0.52980881929 -0.49825122952 -0.47633635998
          -0.44707995653 -0.40599158406 -0.55057317019 -0.41337564588 -0.36461240053 -0.34691008925
          -0.52963805199 -0.24604690075 -0.29669353366 -0.31230336428 -0.23715245724 -0.19425430894
          -0.29606601596 -0.36751440167 -0.334515661 -0.31093043089 -0.28040918708 -0.23691740632
          -0.38978794217 -0.2446988374 -0.19338817894 -0.17438203096 -0.3682179451 -0.03148387745
          -0.085398852825 -0.10224065185 -0.021991785616 0.024002930149 -0.084098391235 -0.15944692492
          -0.12511739135 -0.099675253034 -0.067902728915 -0.021042216569 -0.18337883055 -0.029362715781
          0.02489791438 0.044761776924 -0.160873577 0.23073624074 0.17593801022 0.15893445909
          0.2402100265 0.28650382161 0.17670674622 0.10064385831 0.13565091789 0.16029378772
          0.19368740916 0.2400791496 0.076590716839 0.23111045361 0.2865203917 0.30745700002
          0.09943126142 0.53789722919 0.48486119509 0.46752244234 0.5476154685 0.59322577715
          0.48533570766 0.41171315312 0.44576451182 0.46916344762 0.50234371424 0.54741948843
          0.38888773322 0.53740334511 0.59175938368 0.61335098743 0.41019782424 0.86267781258
          0.81165409088 0.79478311539 0.87261480093 0.91708946228 0.81111001968 0.74006724358
          0.77363288403 0.79447442293 0.82804310322 0.87212431431 0.71915453672 0.86119991541
          0.91609948874 0.93743872643 0.73947739601 1.1888025999 1.1380152702 1.1206693649
          1.1995972395 1.2441625595 1.1380338669 1.0665289164 1.1001831293 1.1209924221
          1.1550228596 1.1994049549 1.0456467867 1.1887176037 1.2438234091 1.2648252249
          1.0662007332 1.5115212202 1.4604074955 1.4434441328 1.5222944021 1.5666917562
          1.461147666 1.3889534473 1.4228717089 1.4442125559 1.4780378342 1.5225799084
          1.3678424358 1.5122318268 1.5668113232 1.5877614021 1.3886628151 0.029636479914
          0.018556639552 0.034108456224 0.009522642009 0.014872355387 -0.008871383965 -0.010529829189
          0.0063953963108 -0.021968612447 0.0037155775353 -0.0059865112416 0.0088377520442 -0.022863985971
          -0.01491851639 -0.0012913106475 0.026323255152 0.031751330942 0.021392954513 0.0065696919337
          0.056300029159 0.044747680426 0.011236910708 0.033845730126 -0.14950247109 -0.11584916711
          -0.10480270535 -0.25485041738 -0.20310035348 -0.18537519872 -0.15626771748 -0.26787528396
          -0.18600432575 -0.31346124411 -0.11567807198 -0.068078696728 -0.09084739536 -0.20326575637
          -0.12643095851 -0.16368600726 -0.10358274728 -0.18395239115 -0.12701313198 -0.22126059234
          -0.15613949299 -0.26886865497 -0.055207632482 -0.10631283373 -0.14868180454 -0.25794351101
          -0.1855558455 -0.31746956706 -0.19996517897 -0.33819898963 -0.068789623678 -0.12909926474
          -0.34526577592 -0.27736830711 -0.25371158123 -0.36037671566 -0.42031928897 -0.27675288916
          -0.17948204279 -0.22606058419 -0.2525280118 -0.30010813475 -0.3606518209 -0.15247198939
          -0.34568557143 -0.42146366835 -0.44998919964 -0.18084453046 -0.41442942619 -0.33267483115
          -0.30434820056 -0.43199628592 -0.50411933661 -0.33186164498 -0.21655194461 -0.27171123028
          -0.30395507812 -0.36006429791 -0.43154528737 -0.18367181718 -0.41319134831 -0.50330263376
          -0.53819125891 -0.21673238277 -0.45440542698 -0.35882744193 -0.32621374726 -0.47474777699
          -0.55934256315 -0.35876208544 -0.2243270576 -0.28808540106 -0.32608386874 -0.39094388485
          -0.47476512194 -0.18610109389 -0.45336973667 -0.55807340145 -0.59891319275 -0.22440767288
          -0.46533691883 -0.35712331533 -0.32042261958 -0.48879778385 -0.58391022682 -0.35711500049
          -0.20458602905 -0.27691784501 -0.31991776824 -0.39363646507 -0.48882314563 -0.16126698256
          -0.46509262919 -0.58403325081 -0.62963241339 -0.20514136553 -0.44643431902 -0.32693946362
          -0.28600385785 -0.47255221009 -0.57779628038 -0.32672786713 -0.15679247677 -0.23764204979
          -0.28554865718 -0.36739584804 -0.47267174721 -0.1085813567 -0.44647240639 -0.57793772221
          -0.62847965956 -0.15784576535 -0.39620521665 -0.2628787756 -0.21693558991 -0.42576655746
          -0.54299688339 -0.26286876202 -0.072892867029 -0.16321499646 -0.21651913226 -0.30809542537
          -0.42545464635 -0.018816983327 -0.39615178108 -0.54291462898 -0.59938073158 -0.073131449521
          -0.30792301893 -0.1578053683 -0.10631198436 -0.34027287364 -0.4724445641 -0.15838031471
          0.054067991674 -0.045971103013 -0.10732149333 -0.20873737335 -0.34024006128 0.11612872034
          -0.30831727386 -0.47215172648 -0.53536993265 0.055237162858 -0.18851144612 -0.021600402892
          0.034624945372 -0.22304955125 -0.36862939596 -0.022237276658 0.21215792 0.10218753666
          0.032652955502 -0.077435240149 -0.22285661101 0.28182846308 -0.18866327405 -0.36814588308
          -0.43708392978 0.21437136829 -0.068019047379 0.11294881254 0.1731145978 -0.10437134653
          -0.26201987267 0.11127388477 0.36427235603 0.24656453729 0.16969129443 0.05238866061
          -0.10445669293 0.44061997533 -0.068746007979 -0.26081961393 -0.33492529392 0.36785164475
          0.02736132592 0.22087204456 0.28540539742 -0.011316681281 -0.17933215201 0.21906910837
          0.48983451724 0.36395335197 0.28117910028 0.15643632412 -0.011197484098 0.572026968
          0.0264913477 -0.17799164355 -0.25694835186 0.49399676919 0.091335974634 0.29461082816
          0.36224499345 0.050848037004 -0.12606078386 0.29364565015 0.57845199108 0.44541507959
          0.35918307304 0.2271360904 0.050867445767 0.66415387392 0.091152764857 -0.12469768524
          -0.20790438354 0.58160793781 0.12291116267 0.33435258269 0.40372690558 0.081008322537
          -0.10266000032 0.33351403475 0.63065606356 0.4913418591 0.40233692527 0.26439246535
          0.080785036087 0.71878659725 0.12237736583 -0.10250947624 -0.18839842081 0.631919384
          0.12277712673 0.34138333797 0.41283637285 0.079158492386 -0.11086008698 0.34138676524
          0.65031814575 0.50449377298 0.41335216165 0.26901811361 0.078897483647 0.7406116128
          0.12239277363 -0.11144274473 -0.19998195767 0.64950460196 0.090711049736 0.31767445803
          0.39177468419 0.045057430863 -0.1521936059 0.31842193007 0.63998270035 0.48777404428
          0.39372262359 0.24275062978 0.044741034508 0.73357111216 0.090214394033 -0.15384434164
          -0.24568666518 0.63768082857 0.026676047593 0.26153820753 0.33875533938 -0.021133933216
          -0.22534908354 0.26230609417 0.59482777119 0.43745717406 0.34038427472 0.18406528234
          -0.021258704364 0.69122803211 0.026095226407 -0.22660157084 -0.32237422466 0.59276282787
          -0.058421105146 0.18096011877 0.25983858109 -0.10727883875 -0.3156863749 0.18142409623
          0.51959586143 0.35948526859 0.26122325659 0.10143240541 -0.10716123134 0.61775124073
          -0.058247640729 -0.31611129642 -0.41427284479 0.51828444004 -0.14973884821 0.089219093323
          0.16873262823 -0.19873414934 -0.40720871091 0.089483901858 0.42708927393 0.26758512855
          0.16934581101 0.0096973739564 -0.19859531522 0.52556222677 -0.149199754 -0.40667679906
          -0.50528454781 0.42684420943 -0.23949845135 0.00025281656417 0.080190695822 -0.28883823752
          -0.49801284075 -7.9739504145e-05 0.33833163977 0.17861127853 0.079919546843 -0.079734884202
          -0.28908833861 0.43700477481 -0.23973099887 -0.49806237221 -0.59653812647 0.33838564157
          0.022568516433 0.012459957972 0.034645896405 -0.0076679564081 -0.0036694151349 -0.023562170565
          -0.010415241122 0.0027658508625 -0.037248194218 -0.0094718821347 -0.031253941357 0.014477546327
          -0.055068906397 -0.054154511541 -0.033864494413 0.030699808151 0.030259061605 0.024538354948
          0.0037895350251 0.056153584272 0.040039185435 0.0031150192954 0.023302428424 0.14356017113
          0.14504942298 0.14266631007 0.13911432028 0.14181575179 0.1399333775 0.14117696881
          0.13948610425 0.1415130347 0.14248692989 0.14135184884 0.14337052405 0.1389054358
          0.11530371755 0.11701091379 0.11939890683 0.11835344881 0.11819989234 0.11591736972
          0.11849304289 0.11694666743 0.11882065982 0.11757544428 0.1209750846 0.11969840527
          0.11861840636 0.055823329836 0.05593502149 0.059814423323 0.063928261399 0.061857253313
          0.061721775681 0.065552607179 0.067597717047 0.068786911666 0.070281513035 0.073453649879
          0.073401488364 0.0689901039 0.0091129513457 0.0091380439699 0.012008293532 0.015835268423
          0.013031588867 0.013354361057 0.015502585098 0.018541155383 0.017962045968 0.019870446995
          0.021230557933 0.021454203874 0.018405988812 -0.0023768784013 -0.0032265046611 -0.0034819787834
          -0.0012042515446 -0.0028726228047 -0.0024044536985 -0.0022884453647 0.00143470068 -0.0017111478373
          0.0010129592847 -0.003147444455 -0.0010645654984 -0.0028122910298 8.8640261797e-11 1.209115013e-11
          -1.0553213164e-10 -5.1152038334e-12 -3.2509005904e-11 -2.0567892008e-12 1.7934812706e-12 2.4389659129e-13
          -4.7522537866e-15 0 0 0 6.1740464459e-15
        </DataArray>
        <DataArray type="Float32" Name="uy" format="ascii" RangeMin="-0.87774401903" RangeMax="0.9607194066">
          -0.12752246857 -0.14224997163 -0.14883305132 -0.12324826419 -0.13051152229 -0.14579963684
          -0.14376489818 -0.12639193237 -0.13648431003 -0.12831580639 -0.12255594879 -0.14002348483
          -0.1307028085 -0.13059674203 -0.1386269927 -0.12956394255 -0.13724248111 -0.12987717986
          -0.15619599819 -0.13886421919 -0.15086954832 -0.15453980863 -0.14915959537 -0.14626033604
          -0.13905888796 -0.15534073114 -0.12068276107 0.21719700098 0.21668939292 0.21699243784
          0.018965477124 0.02264755033 0.018690440804 0.21672411263 0.024722458795 0.21747326851
          0.023425459862 0.21565966308 0.21566167474 0.21614177525 0.028626119718 0.029966160655
          0.026252133772 0.21505437791 0.030723236501 0.21621255577 0.025955479592 0.21629296243
          0.028602257371 0.21632669866 0.02704433538 0.21545156837 0.031446609646 0.2165812403
          0.03194700554 0.21779468656 0.029055029154 0.21718455851 0.022450687364 0.43101653457
          0.42571261525 0.4312453866 0.4235765934 0.42651432753 0.41536977887 0.41427218914
          0.4204351902 0.41093105078 0.42018273473 0.41690763831 0.42020079494 0.41063526273
          0.41351827979 0.41935133934 0.42691075802 0.63553649187 0.62657308578 0.63555943966
          0.62287658453 0.62776583433 0.60969167948 0.60681015253 0.6173876524 0.60245352983
          0.61802577972 0.61229157448 0.61588984728 0.60210889578 0.60673004389 0.61621028185
          0.6276062727 0.80714589357 0.7923411727 0.80730748177 0.78685486317 0.79407596588
          0.76578420401 0.76100409031 0.77787697315 0.75361710787 0.77877289057 0.76988875866
          0.77551060915 0.75343680382 0.76071977615 0.77570992708 0.79418337345 0.92429238558
          0.89966082573 0.92493128777 0.88958001137 0.90269809961 0.8525621295 0.84506565332
          0.87484520674 0.83034336567 0.87531679869 0.8605440855 0.87226766348 0.83016198874
          0.84467607737 0.8717290163 0.90340769291 0.96032184362 0.92748689651 0.9607194066
          0.91475784779 0.9330329299 0.86453187466 0.8547834754 0.89432686567 0.83454459906
          0.89538305998 0.87622117996 0.89168727398 0.83521300554 0.85627710819 0.8928437233
          0.93333017826 0.91692215204 0.88158130646 0.91810357571 0.86729884148 0.88783717155
          0.81141459942 0.80087131262 0.84529298544 0.77741229534 0.84593844414 0.82479017973
          0.84312939644 0.77902191877 0.80361425877 0.84413695335 0.88905549049 0.8273435235
          0.78842163086 0.82945877314 0.77231520414 0.79534161091 0.70897626877 0.69738358259
          0.74802303314 0.6692994833 0.74834120274 0.72443670034 0.74699395895 0.67125886679
          0.70112544298 0.74737507105 0.79815709591 0.70986753702 0.66650336981 0.71216064692
          0.64826720953 0.67446821928 0.57669973373 0.56455552578 0.62142330408 0.53170222044
          0.62130439281 0.59433668852 0.62134534121 0.53401130438 0.56792807579 0.62076288462
          0.67834335566 0.5800409317 0.53490757942 0.58261740208 0.51597052813 0.54344534874
          0.44098359346 0.42862817645 0.48822033405 0.39346641302 0.48786461353 0.45955380797
          0.48832112551 0.39585626125 0.43205323815 0.48757538199 0.54759460688 0.44430854917
          0.39942231774 0.44650879502 0.38105085492 0.40844249725 0.30613929033 0.29369291663
          0.35281595588 0.25855901837 0.35274988413 0.32480892539 0.35288533568 0.26099967957
          0.29772308469 0.35331961513 0.41154038906 0.31472012401 0.26783505082 0.31644150615
          0.24873046577 0.2775798738 0.1699193567 0.15690673888 0.21924303472 0.12023861706
          0.21909411252 0.18956945837 0.21906943619 0.12279245257 0.16101191938 0.21958196163
          0.28037422895 0.1964610666 0.14647430182 0.19825339317 0.12631197274 0.15703886747
          0.042597863823 0.028570875525 0.094415023923 -0.0098493443802 0.094671435654 0.063465408981
          0.094226159155 -0.0071132606827 0.033357013017 0.095542043447 0.1599419266 0.080212883651
          0.02694183588 0.082315184176 0.005566643551 0.037954356521 -0.082311630249 -0.097066834569
          -0.027916252613 -0.13745136559 -0.02768140845 -0.060558237135 -0.02843866311 -0.13465182483
          -0.092426724732 -0.027486307546 0.040758367628 -0.045810952783 -0.099578529596 -0.043854117393
          -0.12152434886 -0.088714718819 -0.21017956734 -0.22504110634 -0.15512688458 -0.26569411159
          -0.15488126874 -0.18834204972 -0.1555852145 -0.26341304183 -0.22084908187 -0.15513126552
          -0.085606202483 -0.1849270612 -0.23777166009 -0.18351221085 -0.25892326236 -0.22693257034
          -0.34467250109 -0.35855081677 -0.29150012136 -0.39821836352 -0.2915994823 -0.32419386506
          -0.29167035222 -0.39681398869 -0.35644754767 -0.29226785898 -0.2244669944 -0.33603540063
          -0.38818252087 -0.33625212312 -0.40775495768 -0.37581264973 -0.49210599065 -0.50509101152
          -0.44056120515 -0.54416626692 -0.44001230597 -0.47212296724 -0.44139510393 -0.54389965534
          -0.50445693731 -0.4401973784 -0.37666162848 -0.49958059192 -0.55194169283 -0.50002276897
          -0.57173252106 -0.53983509541 -0.65556752682 -0.66796886921 -0.60382264853 -0.70749819279
          -0.60373437405 -0.63588410616 -0.60425513983 -0.70752227306 -0.66810393333 -0.60413181782
          -0.53992325068 -0.66978949308 -0.72191262245 -0.669716537 -0.74223214388 -0.70988589525
          -0.8256841898 -0.83764439821 -0.77353000641 -0.87760454416 -0.77396768332 -0.80626702309
          -0.77349036932 -0.87774401903 -0.83832675219 -0.77444493771 -0.70956724882 -0.16974565387
          -0.14503532648 -0.17083674669 -0.13488259912 -0.14876407385 -0.10359632224 -0.097503058612
          -0.12233574688 -0.085085012019 -0.12293020636 -0.10947669297 -0.12103073299 -0.084194712341
          -0.095218449831 -0.11874865741 -0.15005905926 -0.15380121768 -0.15419046581 -0.15549589694
          -0.15032359958 -0.15128694475 -0.15479205549 -0.15176482499 -0.11704031378 -0.15244807303
          -0.11776660383 -0.085805781186 -0.14075748622 -0.086845867336 -0.16549181938 -0.16107873619
          -0.14284051955 -0.12580484152 -0.22073018551 -0.22640830278 -0.18633410335 -0.25082707405
          -0.26230680943 -0.19516319036 -0.25299349427 -0.30677568913 -0.1870969981 -0.19538964331
          -0.20797251165 -0.22967340052 -0.18471650779 -0.19382108748 -0.25400814414 -0.30747932196
          -0.22809204459 -0.26378896832 -0.18534901738 -0.19386050105 -0.14359854162 -0.12739661336
          -0.027082113549 -0.098044328392 -0.028400178999 -0.1242063269 -0.079694241285 -0.2388792634
          -0.25430589914 -0.16817632318 -0.30931207538 -0.16844086349 -0.21168032289 -0.16777651012
          -0.31054010987 -0.25602647662 -0.16722558439 -0.081891767681 0.044917609543 -0.039807867259
          0.043727885932 -0.071591645479 -0.019068088382 -0.20792503655 -0.2269731611 -0.12384328246
          -0.29139703512 -0.1240587458 -0.17612025142 -0.1239239499 -0.29292756319 -0.22898817062
          -0.12407496572 -0.021017951891 0.11023206264 0.01115893852 0.10899997503 -0.026222856715
          0.034937459975 -0.18471494317 -0.20686554909 -0.086494334042 -0.28249490261 -0.086825445294
          -0.14841426909 -0.086611688137 -0.28455170989 -0.21055993438 -0.088104255497 0.033494286239
          0.16404446959 0.052290268242 0.16279649734 0.0098313177004 0.079161740839 -0.16934680939
          -0.19418017566 -0.058073658496 -0.2802143693 -0.058558840305 -0.12814021111 -0.057665340602
          -0.28239071369 -0.19812215865 -0.059719644487 0.077950626612 0.21371488273 0.089519008994
          0.21225701272 0.042565703392 0.11987550557 -0.15674710274 -0.18401868641 -0.033117536455
          -0.27974149585 -0.033689979464 -0.11082078516 -0.032456222922 -0.28187867999 -0.18819327652
          -0.034180093557 0.11832013726 0.27961903811 0.14077937603 0.27822509408 0.088294371963
          0.17479886115 -0.13478498161 -0.16577917337 0.0030330878217 -0.27181890607 0.0028046860825
          -0.082761086524 0.0035149115138 -0.27380228043 -0.16891500354 0.0028465092182 0.17250329256
          0.36264312267 0.20651996136 0.36127978563 0.14776554704 0.244621858 -0.10348284245
          -0.13972179592 0.051226072013 -0.25772237778 0.051593929529 -0.044785629958 0.050713036209
          -0.25891068578 -0.14136770368 0.051192265004 0.24179206789 0.42920345068 0.2575442791
          0.42858061194 0.19255702198 0.29807052016 -0.084150910378 -0.12550824881 0.085761353374
          -0.25477313995 0.086766220629 -0.018703637645 0.084721326828 -0.25448015332 -0.12439115345
          0.086505487561 0.29663038254 0.47140011191 0.2864523828 0.47178986669 0.21535523236
          0.32886439562 -0.082793965936 -0.1280965507 0.10091352463 -0.26709654927 0.10135257989
          -0.012281928211 0.099809892476 -0.26570633054 -0.12558011711 0.10082803667 0.32965004444
          0.48697441816 0.28982517123 0.48805227876 0.21395723522 0.33482122421 -0.10446482897
          -0.15347027779 0.091517262161 -0.30151951313 0.092498712242 -0.028772475198 0.090033128858
          -0.29949209094 -0.1494320035 0.091563917696 0.3359297514 0.46141520143 0.25402086973
          0.46257346869 0.17422157526 0.30134633183 -0.16162444651 -0.21303617954 0.045532040298
          -0.36916598678 0.045991398394 -0.081577695906 0.043871305883 -0.36725306511 -0.20921248198
          0.045263703912 0.30297768116 0.40075746179 0.18593361974 0.40229174495 0.10263144225
          0.23500683904 -0.24595874548 -0.29808959365 -0.030101427808 -0.4620321393 -0.029942387715
          -0.16333940625 -0.030341008678 -0.46075254679 -0.29599970579 -0.030863208696 0.23781940341
          0.32731679082 0.10476237535 0.32929691672 0.018587965518 0.15579177439 -0.34372714162
          -0.39750728011 -0.11933792382 -0.5684221983 -0.11948914826 -0.25760957599 -0.11878284812
          -0.56662297249 -0.39470976591 -0.11935912073 0.15916883945 0.26663708687 0.035258024931
          0.2683467567 -0.054142303765 0.088920556009 -0.43152120709 -0.4871686101 -0.19758465886
          -0.665833354 -0.19802872837 -0.34193950891 -0.19660626352 -0.6645103097 -0.48486101627
          -0.19719132781 0.092198841274 0.22862495482 -0.011163659394 0.2300453335 -0.10361614823
          0.044946886599 -0.49294051528 -0.54960536957 -0.25138553977 -0.73428881168 -0.25209188461
          -0.40081298351 -0.25045385957 -0.73368597031 -0.54869693518 -0.25159421563 0.047338046134
          0.20909658074 -0.035551261157 0.20959694684 -0.12946522236 0.022005649284 -0.52602690458
          -0.58373218775 -0.2805609107 -0.77145904303 -0.28062647581 -0.43228057027 -0.28021639585
          -0.77122628689 -0.5835095644 -0.28056454659 0.022905468941 0.18735130131 -0.058227561414
          0.18741673231 -0.15198788047 -0.00025033848942 -0.5491053462 -0.606810987 -0.30365896225
          -0.79429924488 -0.30386081338 -0.45540186763 -0.30372101068 -0.79414433241 -0.60699188709
          -0.3036403358 -2.9935348721e-05 0.16702139378 -0.078486591578 0.16706234217 -0.17257726192
          -0.020774235949 -0.5695219636 -0.62732625008 -0.32385078073 -0.81522208452 -0.32411509752
          -0.47592836618 -0.3237414062 -0.81525164843 -0.62754666805 -0.32428139448 -0.020494291559
          -0.14494794607 -0.15812397003 -0.14450918138 -0.16409751773 -0.15491251647 -0.19215764105
          -0.19430084527 -0.17356972396 -0.21011143923 -0.17428503931 -0.18511041999 -0.17180216312
          -0.21010139585 -0.1945887953 -0.17305460572 -0.15311986208 -0.17023999989 -0.17283348739
          -0.18344631791 -0.15717732906 -0.16503615677 -0.18286433816 -0.17197853327 -0.027812073007
          -0.025536376983 -0.022283162922 -0.022169375792 -0.024594476447 -0.026291893795 -0.02432044968
          -0.024050390348 -0.023946935311 -0.025472881272 -0.022809419781 -0.024451829493 -0.023607134819
          0.072154045105 0.070983722806 0.071246378124 0.072564311326 0.072740010917 0.075071841478
          0.073337137699 0.072183184326 0.073120892048 0.07118023932 0.074626550078 0.07221763581
          0.076366148889 0.11904551834 0.11313953996 0.10906307399 0.10891513526 0.11563391238
          0.12460298836 0.11630436778 0.10988465697 0.11610206962 0.11082033813 0.11940065771
          0.11404252052 0.12423142046 0.09482164681 0.090323187411 0.087253555655 0.08675801754
          0.091694869101 0.097662553191 0.091862909496 0.087749429047 0.091847792268 0.08900155127
          0.093778192997 0.090997360647 0.097108736634 0.035657539964 0.035297170281 0.03386265412
          0.032817564905 0.034191511571 0.034794673324 0.034285411239 0.034284628928 0.035009101033
          0.036906808615 0.03623168543 0.037653647363 0.034949656576 5.2087232097e-12 -5.9992072074e-12
          8.432783985e-12 -8.37714338e-13 1.0962852154e-11 -7.5480940942e-12 4.1823844193e-13 1.341845336e-13
          3.2581898198e-14 0 0 0 -2.1613595719e-14
        </DataArray>
        <DataArray type="Float32" Name="uz" format="ascii" RangeMin="-0.24488025904" RangeMax="0.39632129669">
          -0.025687687099 -0.010984701104 -0.028283717111 0.0085264323279 0.048273142427 0.048533145338
          0.057905130088 -0.0072351954877 0.0082027604803 0.021229980513 0.029934510589 0.072083175182
          0.062410172075 0.061160545796 -0.04677997157 -0.025916490704 0.045260511339 0.021637365222
          0.0021226811223 0.045010045171 0.058960992843 0.017238855362 0.066135428846 0.041364509612
          -0.0054629403166 -0.044043079019 0.018907865509 0.25360608101 0.18229644001 0.18515439332
          0.24656398594 0.18296548724 0.18796347082 0.2359110415 0.22776155174 0.29338338971
          0.27853149176 0.14167533815 0.064526192844 0.1240831092 0.14139258862 0.075189612806
          0.12967693806 0.10427176952 0.10620709509 0.17914047837 0.17682756484 0.21087531745
          0.20146898925 0.068299695849 0.081783689559 0.17267525196 0.16348044574 0.24338337779
          0.22673028708 0.28924188018 0.27111366391 0.11457782984 0.12532353401 0.25628435612
          0.1826325357 0.1865978241 0.23719954491 0.29639968276 0.13979235291 0.060836307704
          0.12269698083 0.10071204603 0.17848774791 0.21054260433 0.065674245358 0.17011654377
          0.24276539683 0.29095512629 0.11396539956 0.2538049221 0.18505781889 0.19215416908
          0.23171600699 0.2868821919 0.13976863027 0.068438217044 0.12795510888 0.10142547637
          0.17761291564 0.2036357671 0.077383756638 0.16354350746 0.23072271049 0.27771288157
          0.12496443838 0.24428038299 0.18832674623 0.20018714666 0.21917726099 0.26283252239
          0.14282761514 0.089821502566 0.14092384279 0.10847837478 0.17654955387 0.19114550948
          0.10443548858 0.15315903723 0.20624509454 0.24807107449 0.14690551162 0.22849260271
          0.19121323526 0.20847213268 0.20116238296 0.22805166245 0.14799423516 0.12092065066
          0.15823437274 0.1206003204 0.17456358671 0.17429259419 0.14178752899 0.14083538949
          0.17397770286 0.20714788139 0.17515197396 0.21131195128 0.19429300725 0.21624015272
          0.18265827 0.19211947918 0.15514905751 0.15617226064 0.17744012177 0.1366032064
          0.17349608243 0.15835949779 0.18203184009 0.13133989275 0.14225189388 0.16570349038
          0.20470361412 0.1940754652 0.19674645364 0.21947203577 0.16868753731 0.16183707118
          0.16647191346 0.18947854638 0.19557905197 0.15699009597 0.17530050874 0.14959222078
          0.21639326215 0.13144412637 0.12286065519 0.13465595245 0.22771753371 0.17251738906
          0.19450539351 0.21159084141 0.15715885162 0.13601647317 0.18087562919 0.22033581138
          0.20942050219 0.18313881755 0.17817264795 0.14867985249 0.24132625759 0.14414104819
          0.11805699766 0.11540613323 0.23790329695 0.14793929458 0.185877949 0.19318717718
          0.14670096338 0.11433143169 0.19427260756 0.24296522141 0.21525655687 0.20934438705
          0.1788712889 0.15200783312 0.25215885043 0.16441039741 0.12479400635 0.10562504828
          0.23297028244 0.12286234647 0.17432227731 0.16972264647 0.13805632293 0.097272016108
          0.20653969049 0.25947704911 0.21641553938 0.23453852534 0.17865866423 0.1583173573
          0.25393840671 0.1879440546 0.13790334761 0.10311499238 0.21975009143 0.10032743961
          0.1631360352 0.14687174559 0.13210885227 0.084362663329 0.21891146898 0.27463251352
          0.21683779359 0.25881317258 0.17958772182 0.16692487895 0.25463411212 0.21264542639
          0.15381389856 0.104997769 0.2060738951 0.082005932927 0.15405024588 0.12646993995