<VTKFile type="UnstructuredGrid" version="1.0" byte_order="LittleEndian" header_type="UInt64">
  <UnstructuredGrid>
    <Piece NumberOfPoints="791" NumberOfCells="973">
      <PointData>
        <DataArray type="Float32" Name="ux" format="ascii" RangeMin="-0.00045400622184" RangeMax="0.0002976951655">
          -8.0195495684e-05 -7.1219052188e-05 9.7916446975e-05 -7.3197756137e-05 4.2639007006e-05 0.00010839257448
          -3.1689145544e-05 3.0952091038e-05 -3.3274667658e-05 -5.9628600866e-05 -9.2994036095e-05 -1.974128827e-05
          3.6163830373e-05 -1.3659396245e-05 -2.5461784389e-05 6.0393358581e-05 4.0203711251e-05 -8.1447607954e-05
          -0.00010468096298 -5.8706350501e-06 6.2649305619e-05 -1.695877836e-05 -5.0571441534e-05 3.1938201573e-05
          -3.9974649553e-05 4.6951631703e-06 -6.4695421315e-05 3.4512122511e-05 -0.00029649905628 0.000151807777
          6.8351859227e-05 -0.00045400622184 0.00019999178767 0.00018772328622 0.00010672833014 -0.00010902033682
          -3.33435637e-05 -0.00012230334687 -3.6215860746e-05 0.00010253896471 -0.00023946333386 -1.8678216293e-05
          0.00012035496911 2.8144493626e-05 3.6747816921e-05 0.00014480573009 0.00029702493339 -0.00019922151114
          -0.00025183922844 -2.5502262361e-05 -2.8145906981e-05 6.05350142e-05 2.77285435e-05 2.4937355647e-06
          3.1342246075e-05 3.2755255233e-05 -2.88185729e-05 8.8093765953e-06 -1.066549612e-05 0.00011663648911
          -8.8893320935e-05 9.7382246167e-05 9.1819805675e-05 -2.7958280043e-05 4.1785975213e-07 -0.00010878317698
          -2.0888957806e-05 -2.9127117159e-05 6.5530053689e-05 0.00011965289741 -7.7780343418e-05 -6.1590212681e-06
          1.0112363498e-06 4.0926031943e-05 -8.5442305135e-05 5.1483824791e-05 -6.5043721406e-05 -5.6544307881e-05
          2.0781326384e-05 5.6719269196e-05 0.00010945982649 -3.5325232602e-05 -6.8774730607e-05 4.5311171561e-05
          0.00016467492969 0.00017179378483 -5.4421969253e-05 8.4795145085e-05 4.5799442887e-05 2.2453084966e-05
          2.3151003461e-06 -3.1421226595e-05 -0.00017106153246 6.940298772e-05 -5.4981392168e-05 -2.3058932129e-05
          -3.3492371585e-05 -1.4649037894e-06 5.5540776884e-06 -1.2713032902e-06 6.1053200625e-05 8.6351528807e-06
          8.1677217167e-06 -4.8385853006e-05 -7.5153970101e-05 1.2500886442e-05 7.1428389674e-06 -0.00016911649436
          -0.00018231690046 -3.9469992771e-05 -2.7834334105e-05 -6.5428561356e-05 -0.00024403569114 0.0001291675726
          2.2423822884e-05 0.00017488758021 0.0001625752484 -0.0001059355418 1.5576080841e-05 8.0769903434e-05
          5.9579069784e-05 -9.0496687335e-06 3.0653416616e-05 -0.00012375638471 -8.4385515947e-05 -2.8699660106e-05
          -3.8981361286e-05 -7.7090742707e-05 -6.9890586019e-05 -1.9019871615e-05 0.00014344562078 0.00019688726752
          5.7565539464e-05 4.3009178626e-05 3.5039065551e-05 7.0839378168e-05 5.4731612181e-05 -6.4747000579e-05
          1.6194612726e-06 -1.6759244318e-05 0.00016267300816 -0.00014214274415 1.7854810721e-05 2.4537172067e-05
          -3.3337612422e-06 -2.8395974368e-05 -0.00015173201973 -7.4840580055e-05 8.1403277363e-06 -4.7562327381e-05
          -2.847068572e-05 2.69076736e-05 7.5050520536e-05 -6.5108774834e-06 3.7405654439e-05 3.902390381e-05
          9.4937975518e-05 -8.1399019109e-05 1.2647527001e-05 6.0089810177e-06 -2.8049511457e-05 -2.3110167604e-05
          4.084419561e-05 -4.0715589421e-05 8.9599205239e-05 -1.427546249e-05 4.7074059694e-05 0.00010988410213
          0.00014147734328 0.00011246031499 6.8671361078e-05 -0.00010690718773 0.00010789844964 -4.345331763e-05
          1.2000486095e-05 -3.0230847187e-05 -0.0001058926282 -3.2224168535e-05 -4.1386243538e-05 -3.9054648369e-06
          -4.9118596507e-05 -7.7585427789e-05 1.5239758795e-05 0.00011730239203 0.00011951510533 5.5244523537e-05
          -1.9364106265e-06 -7.3751805758e-05 5.4979514971e-05 -8.4909457655e-05 -2.1036770704e-05 -6.6771710408e-05
          8.44753813e-05 1.6996709746e-05 1.4607918274e-05 -4.328330192e-07 -0.00015728730068 3.2835305319e-05
          2.5451770853e-05 1.4122214452e-05 -7.0923510066e-05 3.9707931137e-05 -2.9437476769e-05 -2.7193796996e-05
          3.5514294723e-05 -6.8946930696e-05 0.00011635077681 -6.4356274379e-05 0.0002976951655 2.9351545891e-05
          -0.00015019049169 -6.9517307566e-05 -0.00020345476514 0.00018603180069 -8.2849219325e-06 -9.6487914561e-05
          -0.00012084559421 8.7335742137e-05 -2.5877141525e-05 2.4435927116e-05 -8.4469182184e-05 3.047440623e-05
          -1.590318243e-05 4.0752925997e-05 0.00017168416525 -6.6940056058e-06 -0.0001969357254 -5.6802537074e-06
          0.00011501334666 0.00021994821145 -4.6969753384e-06 -2.0312847482e-05 -4.5381952077e-05 6.4164014475e-05
          4.2943145672e-05 2.9937418731e-05 -4.3567171815e-05 -3.5392713471e-05 -0.00015199091285 5.5973247072e-05
          2.370756647e-06 -5.8030464061e-06 -0.00012406738824 -3.081847899e-05 2.9472561437e-05 0.00019868586969
          -1.1630487279e-05 -2.7106285415e-05 -3.5191136703e-05 8.2463711806e-06 7.2146633556e-08 0.00011551132775
          -5.0565645324e-06 6.5603700932e-05 -0.00024230082636 4.7557691687e-06 -0.00010819020827 2.2627644285e-05
          -2.335242425e-05 -4.8300040362e-05 9.2815957032e-05 -4.1567668632e-06 3.3563355828e-05 -0.00011852912576
          -8.846912533e-05 -7.289853238e-05 5.2791605412e-05 8.5659048636e-05 6.4348932938e-05 3.1423616747e-05
          -6.8311070208e-05 5.9393023548e-05 1.8901704607e-05 1.904819328e-05 0.00014029895829 8.2593025581e-05
          4.502471711e-05 2.1920521249e-05 3.9562350139e-05 3.9372931496e-05 3.7017223804e-05 -8.8051081093e-07
          4.520877701e-05 -1.8202836145e-05 -2.1951160306e-05 -1.7114074581e-05 2.9478389934e-06 1.7857129933e-05
          2.6988568607e-06 -5.6168348237e-05 -3.4525994124e-05 -0.00011394014291 -8.2833639681e-06 -0.00014129093324
          -5.9611582401e-05 9.6642899734e-05 1.3268781004e-05 -3.2450665458e-05 -0.00011578549311 -4.8640824389e-05
          5.9198526287e-05 -8.5147803475e-05 -5.5872318626e-05 1.081532173e-05 0.0001175100042 3.5855904571e-05
          -9.932287503e-05 -4.1350023821e-05 3.7335998059e-05 5.2060415328e-05 -9.1719688498e-05 8.8247092208e-05
          2.8611915695e-05 -3.2039231883e-05 -6.9956877269e-05 -6.1054313846e-05 2.5802042728e-05 3.1464929634e-05
          -3.160234337e-05 -0.00010261507123 -7.7307027823e-05 9.5041403256e-05 9.2292233603e-05 8.7689440988e-05
          8.8963402959e-05 -2.8907099477e-05 2.2220438041e-06 2.2072214051e-05 -5.7781940995e-05 -6.1700943661e-06
          -2.088337169e-05 -1.1903711311e-05 -8.6581640062e-06 3.6338660721e-06 4.4413947762e-05 1.3650767869e-05
          -1.9600412998e-05 1.1823237401e-05 2.3047714421e-05 7.3626433732e-05 1.127404812e-05 5.0634789659e-06
          -5.1329703865e-07 1.3371048226e-05 -3.1402432796e-05 4.080350493e-07 -2.3457618227e-05 5.3806699725e-05
          -0.00020765572845 0.00017924375425 6.6553366196e-05 -3.253587056e-05 -7.9899837147e-05 6.1019072746e-05
          8.0830643128e-05 1.60179261e-05 0.00018363709387 -0.00021463457961 4.2820713134e-05 4.6338514949e-05
          6.6403692472e-05 -1.3104728168e-05 3.5673390812e-05 9.7127285699e-06 -1.0094034224e-05 5.5112985137e-05
          4.0641050873e-05 8.6028112491e-06 3.6162728065e-05 2.1769224986e-05 -0.00016714724188 7.8597237007e-05
          -0.00011285675282 -0.00016890834377 -0.00014437601203 5.1442708354e-05 9.626604151e-05 9.0514542535e-05
          -5.6717919506e-05 -8.7481013907e-05 8.9444205514e-05 -2.9496335628e-05 5.1701870689e-05 -2.6624722523e-05
          -1.8266015104e-05 6.3865962147e-05 -5.1287515817e-06 7.4561459769e-05 -9.3436741736e-05 6.2011960836e-05
          -4.4768763473e-05 -8.3252780314e-05 4.7980593081e-05 1.8104638002e-05 0.00012510242232 0.00011160357099
          6.8958375778e-05 7.7839802543e-05 3.7573867303e-05 -3.4265973227e-05 -1.0738524907e-05 4.2868115997e-05
          -0.0001296086557 -4.6422628657e-05 -2.6995036023e-05 5.6855910771e-06 -5.2723797126e-05 -4.822519486e-07
          -9.4989218269e-06 1.0202433259e-05 1.7983580619e-05 -0.00012648114352 7.8334414866e-05 1.478568538e-05
          0.00010612060578 7.7285048974e-06 -8.9616314654e-06 -1.3009074792e-05 5.6367443904e-05 0.00010015147564
          2.3085416615e-05 -0.00015342315601 7.5179304986e-05 9.7382537206e-05 1.9995108232e-05 0.00013993555331
          -3.6054483644e-05 -8.8591194071e-05 0.00019487089594 3.0963685276e-05 -5.8522542531e-05 -6.5529988206e-05
          -5.2265550039e-05 7.0431292443e-06 -5.6877692259e-05 -1.8996890503e-05 -4.5576623961e-05 -6.0443297116e-05
          -3.1976790069e-06 6.9483838161e-05 -1.0521126796e-06 2.08812653e-05 3.8131725887e-05 -9.9889730336e-05
          0.00014298025053 4.694526433e-05 2.9217622796e-05 5.6804178712e-06 1.8378058257e-06 3.7203499232e-05
          -0.00018232050934 -0.00027120977757 -9.7450953035e-05 -7.9537559941e-05 -5.0153488701e-05 -7.1830356319e-05
          -3.7336591049e-05 -7.0198970207e-05 3.1640181987e-05 -6.5447697125e-05 5.635161142e-05 3.687336357e-05
          3.906402344e-05 9.044737817e-05 4.1076287744e-05 -5.6366581703e-05 -1.7546391973e-05 -0.00017335577286
          -5.1661345424e-06 -5.6188757299e-05 -4.8927046009e-05 -0.00012730254093 -6.664256216e-05 5.3613446653e-05
          0.00018689557328 0.00014882048708 0.00015799653193 2.340955507e-05 6.7600019975e-05 4.6545195801e-05
          5.6405082432e-05 -6.6767977842e-05 1.5677449483e-05 -1.3459905858e-05 6.171977293e-05 5.0013903092e-05
          -3.3764874388e-05 1.1630095287e-05 -6.8497822213e-05 9.6610056062e-05 6.0283502535e-05 0.00012555328431
          8.0217221694e-05 1.8743106921e-05 8.4072249592e-05 2.6820020139e-05 3.3340907976e-05 -3.8706872147e-05
          -5.7109838963e-05 9.4467584859e-05 5.5359534599e-05 7.1033689892e-05 -4.1105427954e-05 0.00026346350205
          1.7994778318e-05 -0.00011601245933 -0.00017287796072 -3.7050911487e-05 -5.4679545428e-05 -1.9843539121e-05
          7.4913601566e-05 -9.393398841e-07 -2.0881716409e-05 8.2880920672e-05 -8.1137295638e-05 8.5322508312e-06
          -9.9646258604e-06 -0.00012657335901 1.5177602108e-05 -6.3614737883e-05 1.349980721e-05 -5.3106501582e-05
          -6.2949720814e-06 4.5002987463e-05 -1.3694554582e-05 -2.8119220588e-05 5.4338073824e-05 2.7421114282e-05
          -8.7125510618e-05 5.882244659e-05 -4.4905726099e-05 0.00012774292554 -9.0410365374e-05 -0.00010537546768
          -3.9678019675e-05 1.1634307384e-06 5.1314204029e-05 -0.00012937372958 -4.2404539272e-05 1.6474443328e-05
          -7.7847595094e-05 3.042599019e-05 -4.1848463297e-05 -2.3277778382e-05 -4.5009728638e-05 0.00012545703794
          -4.724387054e-06 0.00024562265025 -0.00019874193822 5.0852477216e-06 -7.952929991e-06 1.2321967915e-05
          2.6206205803e-05 -0.00014563761943 -2.9513926165e-06 -8.5956606199e-05 0.00012328884623 -4.6960092732e-05
          -6.5903099312e-05 -3.376764289e-05 5.1109782362e-05 5.5369597249e-05 -6.404328451e-05 0.00028694968205
          -0.00018886555335 0.00014324930089 1.4556996575e-05 0.00014520522382 -7.9939964053e-06 -6.3671628595e-05
          -8.1872480223e-05 -0.00013533474703 0.00011397718481 -3.4345372114e-05 3.7043362681e-05 5.0910199207e-05
          6.2698716647e-05 2.8870781534e-05 -8.3764098235e-05 4.4026841351e-05 -6.8424320489e-05 -5.2231604059e-05
          3.544439096e-05 0.00020005858096 2.1490366635e-05 -4.8903282732e-05 -0.00013836332073 -0.00012018875714
          2.7994308766e-05 5.3773143009e-05 4.1898078052e-05 9.6346448117e-05 5.729122222e-06 2.0024470359e-05
          1.7929516616e-05 -4.0602666559e-05 3.7690973841e-05 -5.6111453887e-05 5.3750638472e-05 6.6658845753e-05
          6.6937202064e-05 -2.9424212698e-05 3.6499468479e-06 3.5947694414e-05 6.182143261e-05 7.10185559e-05
          -8.5841886175e-05 -1.6476991732e-05 -3.6891040509e-05 7.9409524915e-05 -5.3980860685e-05 -0.00010949286661
          0.00018120884488 4.1076807975e-05 -3.6249395635e-05 0.00018485511828 2.231149665e-05 -5.3052415751e-05
          -0.00019126078405 1.492642059e-05 -0.00020664207113 1.6336722183e-05 -0.00011722592171 -7.3408213211e-05
          -7.0193935244e-05 0.0001660543785 -8.7929722213e-05 -4.7047189582e-05 6.1485625338e-05 0.00026920344681
          -4.3329371692e-05 0.00015581620391 -7.773608246e-08 -0.00010842716438 -0.00013512287114 -5.7703935454e-05
          -1.2523722035e-05 -6.0562808358e-05 -1.0798274161e-05 -4.7856443416e-05 8.5321466031e-05 6.1120961618e-05
          -0.00011323832587 -7.0074849646e-05 -4.2521798605e-05 0.00020802998915 -6.1469661887e-05 -0.00011336428724
          -1.6435409634e-05 -7.4496871093e-05 6.7973320256e-05 3.7920010072e-05 2.7154412237e-05 -3.4241955291e-05
          4.2990825023e-05 -1.1815453036e-05 9.8236610938e-05 -2.3159873308e-06 3.2531381294e-05 7.5677737186e-05
          -2.1736443159e-05 -0.00026605225867 2.5294755687e-05 -0.00011862930114 8.1908336142e-05 8.7005028035e-05
          7.5347852544e-05 0.00021145510254 9.8451178928e-05 -8.5547508206e-06 -2.1998550437e-05 -8.9438748546e-05
          -6.4538951847e-05 6.0321850469e-05 6.141414633e-05 2.9033044484e-05 -2.5716473829e-05 -0.00022171334422
          6.0395388573e-05 1.3672756722e-05 2.5598885713e-06 2.2225800421e-05 -2.0553003196e-05 1.2015813809e-05
          3.5387514799e-05 -8.5604042397e-06 -7.8211523942e-06 -4.029723641e-05 -5.1640578022e-05 7.5353814282e-06
          -3.2100615499e-05 4.107548375e-05 -0.00012612299179 0.00021395715885 5.0614249631e-05 -1.3567505448e-05
          -6.5318650741e-05 8.7108301159e-06 5.0552616813e-06 -0.00025031086989 -1.8474223907e-05 -1.202788917e-05
          5.4218231526e-05 1.8005506718e-05 2.62137346e-05 -9.2063550255e-05 5.9588426666e-05 5.4192577181e-07
          1.613909717e-06 -0.000111156005 2.2101416107e-05 -8.3710310719e-06 1.615974179e-05 2.0909715204e-06
          0.00012686348055 -8.6678419393e-06 8.6356107204e-05 2.2272104616e-05 -1.3100482647e-05 4.5996607696e-06
          -3.0094076919e-06 -0.00023494847119 -5.2731058531e-05 -6.8005523644e-05 -0.00010613271297 -0.00013400596799
          -0.00011942908168 9.4179384178e-05 -0.00011108312174 -5.7194181863e-05 -6.5024418291e-05 3.1967094401e-05
          -6.1921753513e-05 0.00012052324018 3.050932537e-05 -5.3629692047e-06 8.4753570263e-05 -5.2122552006e-05
          -0.00011889808957 3.3568820072e-05 0.00015012694348 3.8623820728e-05 -2.6682964744e-05 4.9986505473e-05
          1.4449014088e-05 -0.00010998392099 5.5280892411e-05 -0.00021020123677 1.9745762074e-06 5.0934937462e-05
          -8.2866441517e-05 -0.00013565007248 7.6982141763e-05 7.0027694164e-05 5.7304459915e-05 0.00010052557627
          0.00014937517699 0.00016318089911 0.0001843682694 3.1463961932e-05 0.00010903470684 -6.8663966886e-06
          3.2143540011e-05 3.4776687698e-06 0.00015464413445 8.0607824202e-05 -2.4253882657e-05 6.473789108e-05
          0.00012610819249 0.00016998943465 0.00014440990344 9.7167903732e-05 -2.406270869e-05 0.00013474212028
          -3.8617192331e-05 -7.8787641542e-05 5.5307671573e-05 -3.3957225241e-05 0 0
          0 0 0 0 0 0
          0 0 0 0 0
        </DataArray>
        <DataArray type="Float32" Name="uy" format="ascii" RangeMin="-0.00080528616672" RangeMax="0.00080984440865">
          -9.2913753178e-05 -7.8152952483e-06 9.0505323897e-05 -0.00058191362768 5.8298746808e-06 -5.3260475397e-05
          9.841794963e-05 -6.5972337325e-05 3.2395200833e-05 -0.0001328690123 -0.0002352194424 -4.6958964958e-05
          -0.00011532926146 2.0470897653e-05 -0.00010815468704 0.00024837290403 2.2327643819e-05 0.00025506920065
          7.6121876191e-05 5.086699457e-05 -0.00011052177433 2.7687083275e-05 4.0808539779e-05 -1.7114898583e-05
          -0.00020421987574 1.8348200683e-05 0.00032770237885 -0.00010313780513 3.4530912671e-05 0.00010053925507
          -1.9529668862e-05 7.8031058365e-05 0.00019184240955 -0.00014222200844 -2.2793278731e-06 0.00015899597201
          4.9476140703e-05 -0.0001206669258 2.1685704269e-05 -0.00021075279801 -5.680720642e-05 1.2046557458e-05
          -0.00028287016903 -2.0104400392e-05 -8.1148566096e-05 0.0001045102108 0.00021496083355 -7.8544282587e-05
          -0.00025624534464 0.00012690656877 0.00010612478945 -2.4281516744e-05 -2.359048267e-05 -3.8120699173e-05
          2.1650706913e-05 -2.6527814043e-05 -3.5111661418e-05 -1.4052919141e-05 6.835644308e-05 -0.00011597882985
          5.2226096159e-05 -3.8504964323e-05 -0.00028895377181 6.4988678787e-05 0.00013673315698 3.9218226448e-05
          -0.0001349584345 5.2581417549e-05 0.00018235284369 -5.8979774622e-05 5.7711182308e-05 5.8207770053e-05
          8.675121353e-05 0.00017492423649 -9.9143799162e-05 -4.6351637138e-05 4.5605516789e-05 2.0520243197e-05
          -3.5443048546e-05 -8.035715291e-05 0.00010443562496 2.4758854124e-05 -0.00011788254051 3.2528325391e-05
          7.9369907326e-05 2.876002327e-05 0.00013894324366 4.2131210648e-05 3.8588656025e-05 -2.2175499907e-05
          3.3929325582e-05 -6.307487638e-05 -1.4367644326e-05 6.5597079811e-05 -4.9932305046e-06 -5.4526928579e-05
          7.0923153544e-05 -3.9508060581e-05 -0.00014808346168 -2.1537729481e-05 -9.2222660896e-05 1.198163045e-05
          0.00014372442092 -1.879665615e-05 -4.6755190851e-05 -0.00010144761472 7.212375931e-05 2.0963079805e-05
          -7.9356632341e-06 3.5755012505e-05 -7.7862268881e-06 6.6031549068e-05 0.00013353889517 -8.0194957263e-05
          -8.7307511421e-05 -8.7336804427e-05 -1.7066196961e-05 -0.00016562337987 7.6864394941e-05 5.9820886236e-05
          5.3094019677e-05 1.7986056264e-05 4.6002478484e-05 -2.6000047001e-05 1.4175214346e-05 -4.3792675569e-05
          -4.8851150495e-05 -1.0158361874e-05 0.0001210426999 -6.8013805503e-06 -5.4417359934e-05 -3.6996305425e-05
          0.00010272970394 -5.3540523368e-05 0.00013140728697 5.9685407905e-05 1.7299156752e-05 -1.1452087847e-06
          1.7446831407e-05 2.2267153327e-05 -3.1660594686e-05 -0.00011384547543 -1.8422249923e-05 -5.9447975218e-05
          -1.4925954019e-06 3.1758256227e-05 5.6264939303e-06 1.0873000974e-05 7.7814647739e-06 -3.1638514884e-06
          7.7806806075e-05 1.7090793335e-05 5.0581897995e-06 -2.1194347937e-05 1.7763522919e-05 -8.2248134277e-06
          9.4026006991e-05 -9.8634511232e-05 -0.00011892073962 3.552103226e-05 -8.3463048213e-05 -9.5912419056e-06
          -8.7183972937e-05 1.5470253857e-05 0.00010829096573 3.1521813071e-05 -1.9385046471e-05 -2.1473069864e-06
          -1.3585884517e-05 4.0761988203e-05 -9.8891774542e-05 0.0001127143405 -1.9327615519e-05 -7.1264294093e-05
          0.00017253828992 5.5106524087e-05 4.5724016218e-07 1.4138997358e-05 6.4073203248e-05 -1.1169015124e-05
          0.0001505058317 7.0279435022e-05 -5.4954140069e-05 -1.1263114175e-06 5.5011354561e-05 0.00010626093717
          -5.5757795053e-05 6.7343193223e-05 -1.8504459149e-05 -6.4692285378e-05 -6.8383473263e-05 6.6367872932e-05
          -5.892957779e-05 -1.6676873202e-05 -0.00015409794287 2.5348912459e-05 -2.3963346393e-05 0.00014691175602
          -1.9192668333e-05 -9.5006871561e-06 -0.00011626022751 1.999556298e-05 -0.00011846308917 3.2750864193e-05
          -3.9344926336e-05 -3.589833068e-05 -0.00028568523703 0.00012856496323 -9.9144581327e-06 -4.262845323e-05
          -0.00019875509315 2.8474121336e-06 8.3382416051e-05 5.0744321925e-05 4.9575476169e-07 -8.3969534899e-05
          -0.00013835683058 2.2662025003e-06 4.141446334e-05 6.0672045947e-05 -3.7703881389e-05 5.5733726185e-05
          -4.2909268814e-05 -4.2703064537e-05 0.0001296861883 2.0265886633e-05 -9.9947719718e-05 5.955513916e-05
          0.00012818821415 3.3737529748e-07 0.00013072590809 1.733539284e-05 -7.6773831097e-05 -8.2309734353e-06
          0.00022585275292 -3.7166963011e-05 -5.812546442e-05 3.2384900805e-06 -2.1499809009e-06 -0.00014817826741
          9.8389855339e-06 1.9952411094e-05 0.00013051439601 3.7413476093e-05 -0.00013502305956 7.4320640124e-05
          -5.0582664699e-05 2.532140752e-05 -0.00012309890008 -6.3151070208e-05 3.3155876736e-05 -7.8764991486e-05
          -8.4386650997e-05 -5.545005115e-05 6.4957675932e-05 -8.5706946265e-05 3.1131501601e-05 3.0302504456e-05
          0.0001463257795 2.3222587515e-06 -1.0717362784e-06 0.0001222393621 -8.5987288912e-05 3.5362558265e-05
          -8.4894338215e-05 5.9620473621e-05 -2.2018504751e-05 -3.2733369153e-05 7.8040116932e-05 -1.92911466e-05
          -1.845260158e-05 -2.4125409254e-05 -6.6951656663e-07 5.230007082e-05 4.7007015382e-05 1.0968929928e-05
          -3.0888753827e-05 1.372177303e-05 4.0976909077e-05 3.7839585275e-05 -9.3971277238e-05 -8.8325268734e-06
          -6.8303284934e-05 3.5362743802e-05 0.00014365745301 4.0286358853e-05 -5.3525949625e-05 6.2151673774e-05
          -0.00016262094141 0.00011167681805 0.00025438377634 9.8728647572e-05 -2.5601179004e-05 9.4705181255e-05
          -0.00014344563533 5.0069844292e-05 -1.101563339e-05 -5.0126349379e-05 -1.6368832121e-06 6.8819754233e-05
          4.5959317504e-05 6.7239961936e-05 -9.7991426173e-07 -6.020330602e-06 -0.00018278110656 3.7660504404e-06
          0.0002319747 3.2825762901e-05 -0.00018233471201 -2.4583665436e-05 -0.00014313004795 -8.5665096776e-06
          -1.7057098376e-05 -6.1072074459e-05 4.8064437578e-05 -1.027034341e-05 5.9257123212e-05 6.3031628088e-05
          -0.00012391011114 0.00013628229499 -5.4504096624e-05 -1.7624866814e-05 0.00024193611171 -2.1012721845e-05
          -0.00021267079865 -7.5981886766e-05 -0.00014511942572 6.3887064243e-06 -5.0477578043e-05 -1.9031818738e-05
          -1.3370456145e-05 -6.1483524405e-06 -1.3727337318e-05 2.163046338e-05 -8.1349799075e-06 1.6214227799e-05
          2.9104528949e-05 2.6466989311e-06 3.3832293411e-05 4.0406439439e-06 -2.989251152e-05 7.8330467659e-06
          5.3831254263e-06 2.2395977794e-05 -1.8544295017e-05 -2.2789174182e-05 -6.8703798206e-06 -6.0558948462e-05
          8.1606749518e-06 8.6347563411e-06 -0.0001042486474 0.00013136936468 -1.6515845346e-05 -6.1340128013e-05
          -0.00023410684662 -9.8542805063e-05 0.00025025143987 -0.00023763639911 -7.9450728663e-05 -4.5189550292e-05
          0.00010967129492 7.1028989623e-05 -4.2842806579e-05 -9.0265646577e-05 4.1025472456e-05 -1.8833687136e-05
          0.00010595638742 2.9556999834e-06 -7.6565820564e-06 -5.0292283049e-06 -0.0001126227944 -8.054637874e-05
          -4.5310083806e-05 -2.5405861379e-05 8.9608229246e-06 -1.8779468519e-05 -3.5003740777e-05 -2.6680325391e-05
          -3.6676615309e-06 -7.1757443948e-05 0.00015682235244 -1.704515671e-05 -6.5226413426e-05 4.8090576456e-05
          1.7654292606e-05 0.00012191078713 3.0683186196e-05 8.2440274127e-05 -3.7506797526e-05 -8.5273182776e-05
          8.4217077529e-05 0.00010094272875 -2.0794099328e-05 -0.00013747830235 3.9817336074e-05 1.1586254914e-05
          3.8374775613e-05 3.108560486e-05 0.0001099476649 9.9583543488e-05 -1.7082318664e-05 -1.0407844456e-05
          9.6275721262e-07 -1.341414918e-05 4.5378666982e-05 1.5465542674e-05 -5.3583811678e-05 7.828159869e-05
          -3.8118352677e-05 -5.3193252825e-05 1.8496488337e-05 7.6191252447e-05 -0.00020417867927 -8.0829333456e-05
          -6.4125456447e-06 0.00011349736451 6.7439024861e-05 1.9966726541e-05 2.9298146274e-06 -0.00010820048919
          1.4684570488e-05 -1.3394865164e-05 2.4967861464e-05 -4.5329685236e-05 -7.5737909356e-05 -7.8066055721e-05
          -0.00010696432582 0.00019252717902 -0.00015290452575 -5.6882916397e-05 1.486031033e-05 7.986077253e-05
          -2.8164238302e-06 3.4678512748e-05 4.3706550059e-05 -4.0586204705e-05 7.4421900536e-06 0.00018613616703
          -2.3646840418e-05 2.3448901629e-06 -8.5789295554e-05 5.6028175095e-06 -7.9692927102e-06 -2.6882335078e-05
          7.6503849414e-05 -0.00015810318291 5.9024652728e-05 0.0001162523622 8.9826397016e-05 -5.0698222367e-06
          -2.5109187845e-05 3.6321765947e-05 5.5859843997e-05 -2.97660863e-05 4.3360618292e-05 -0.00014188436035
          -6.5873580752e-05 -1.6155732737e-05 9.1853307822e-06 -2.9898333196e-06 1.394472838e-05 -0.00012146835797
          4.21270488e-05 3.769686009e-05 9.9836295703e-05 -9.8645086837e-06 5.225473069e-05 -4.6966455557e-05
          1.4177778212e-05 3.7154735764e-05 4.3546227971e-05 -0.00016751233488 2.8539961932e-05 -2.8200804536e-07
          -1.9310753487e-05 7.2357543104e-05 5.461892215e-05 -0.00014697456209 3.8107446017e-05 1.9450983018e-05
          6.31057992e-05 6.163623766e-06 5.9580564994e-05 -8.5781503003e-06 7.4901477092e-06 8.6476691649e-05
          3.2167707104e-05 -1.3818061234e-05 4.4616758714e-06 -9.7932506833e-06 -3.1661376852e-05 -4.1354822315e-05
          1.3663880054e-05 -5.7757220929e-05 -1.4737305719e-05 -5.4768934206e-05 -9.7890097095e-06 -3.4049106034e-05
          -4.2385327106e-05 2.6301437174e-05 -3.7195073674e-05 -4.0388684283e-05 -5.142216105e-05 0.00011368337437
          -2.2475831429e-05 0.00017844483955 -4.2163886974e-05 -0.00016902780044 -5.6884971855e-05 -2.8457070584e-05
          6.9270354288e-05 8.0356003309e-06 2.3665121262e-05 -9.6155665233e-05 -2.5572646337e-05 8.2551952801e-05
          -3.0884089938e-05 -0.00018013188674 0.00015035521938 2.1944359105e-05 7.3839182733e-05 2.5953731893e-05
          4.51037522e-05 6.1112659751e-05 4.5172205319e-06 2.4441005735e-05 4.8404577683e-05 -3.1978033803e-05
          8.8234693976e-05 -4.2796491471e-05 -4.7192072088e-05 2.8433181797e-05 6.7700852924e-06 -4.8452311603e-05
          0.00012873303785 -0.00011395267938 0.00010492784349 0.00010230381304 -1.5872412405e-05 -2.4814531571e-05
          9.8147575045e-06 -8.4136503574e-05 3.3919441194e-05 -5.5392130889e-05 7.2533701314e-05 -9.2299953394e-05
          -4.1311268433e-05 -0.00012872635853 -1.8951504899e-07 4.7947902203e-05 -3.0864794098e-05 -0.00010944845417
          7.4314004451e-05 4.9724658311e-05 -4.5157405111e-05 3.1694791687e-05 -5.4326999816e-05 -6.569166726e-05
          8.5099018179e-06 -3.8948786823e-05 -3.3407104638e-05 1.4964091861e-05 -5.6609238527e-05 -8.545423043e-05
          4.507218182e-05 -4.0303020796e-05 -1.7562058929e-05 3.7809742935e-05 4.5566182962e-05 -3.392968938e-05
          -4.0711693146e-05 7.3476097896e-05 -0.00011581734725 -2.2692995117e-05 4.7700974392e-05 -3.2315896533e-05
          -1.2674801837e-05 7.2400522185e-05 1.6760457584e-05 6.5158487814e-06 1.3999543626e-05 -8.9962095444e-06
          9.0938461653e-05 7.1064887379e-06 1.1814623576e-05 -6.281833339e-05 -0.00014419482613 -6.8897352321e-06
          1.2437785699e-05 8.7014719611e-05 5.2390125347e-05 -5.6371631217e-05 5.1024624554e-05 2.2007334337e-05
          5.6442135246e-05 0.00012704318215 -7.0911606599e-05 -6.7379136453e-05 0.00011452227773 -0.00011273245764
          5.6088316342e-05 -4.654778968e-05 -3.4617747588e-05 5.9991212765e-05 0.00013049501285 5.2756069636e-05
          3.5857290641e-05 1.1208667274e-05 5.5607408285e-05 -4.8047630116e-05 -2.1027675757e-05 0.00017769778788
          -8.3826125774e-05 -0.00020751208649 4.0559414629e-05 -1.2885655451e-05 -4.6015993576e-05 0.00013503030641
          -5.0427119277e-05 -0.00017052261683 5.9651247284e-05 -0.00010799316806 9.1055633675e-05 4.8010264436e-05
          9.1886802693e-05 -0.00014529663895 1.4203385945e-05 0.0001596968068 -7.7068078099e-05 4.7070567234e-05
          -7.0875437814e-05 3.4702421544e-05 -1.8921151423e-05 4.7154289859e-06 -5.0997503422e-05 -3.2393916626e-05
          -4.5640008466e-05 8.7418220573e-06 4.8058696848e-05 6.2238854298e-05 0.00014287687372 -5.7599831052e-05
          -9.714004409e-05 2.8538521292e-05 -7.7546617831e-05 1.9007544324e-05 -0.00014204061881 9.8253520264e-05
          -1.0549990293e-05 -7.5232150266e-05 5.5879230786e-05 -2.7873804356e-05 -3.0030952985e-05 -9.0415469458e-06
          -2.3481057724e-05 4.2658819439e-05 4.6907280193e-05 -0.00013406132348 -7.9828576418e-05 2.7946578484e-05
          -1.9654962671e-05 -0.00016208790476 0.00010959947394 5.364685785e-05 2.4525340905e-06 -0.00026912771864
          5.4749827541e-05 0.00025403712061 -3.223717431e-05 9.7101779829e-05 -1.1469683159e-05 4.7758225264e-05
          3.3390268072e-05 -0.00010030007979 6.2656326918e-06 -3.3398077903e-07 2.8629325243e-05 -0.00010222000128
          0.00013957325427 2.7931277145e-05 -2.3433723982e-05 -5.2586008678e-05 1.6792482711e-06 0.00016575495829
          -1.7785290765e-05 -3.1014162232e-05 2.3198052077e-05 2.3688322472e-05 3.7955109292e-05 7.5700750131e-06
          -5.2489023801e-05 -9.0564994025e-05 -2.6495737984e-05 9.8986973171e-05 1.0734642274e-05 0.00013942107034
          -2.8318992918e-05 6.1226986872e-05 4.3007872591e-05 -5.4333555454e-05 8.643133333e-05 -4.6993918659e-05
          4.3598269258e-05 4.3991694838e-05 9.1258661996e-05 2.7674670491e-05 -3.6463687138e-05 0.00013274286175
          3.6466175516e-05 0.00013550276344 1.573615009e-05 7.7248900197e-05 8.203437028e-05 8.9032502729e-05
          0.00013459988986 -0.00015887644258 7.3953189712e-05 6.2618433731e-05 9.7100364655e-06 -6.3256222347e-05
          -0.00014338678739 5.8127829107e-05 -9.0321977041e-05 -4.1846775275e-05 2.4024942832e-05 6.8039305916e-05
          0.0001217414756 -0.00013580675295 5.5098134908e-05 0.00011792316946 0.00043840240687 5.1554488891e-05
          -0.00080528616672 8.3928593085e-05 0.00080984440865 -0.0004306883784 -0.0003544150386 0.00019476863963
          -3.0381299439e-05 9.5380681159e-05 -9.5401526778e-05 3.9069309423e-05 0.00011067552259 0.00027864679578
          7.533099415e-05 -0.00045548702474 -0.00010270110215 0.00038674901589 2.8774917382e-07 1.3484625015e-05
          -0.00027847808087 2.3869948564e-05 -7.4608557043e-05 8.5336005213e-06 -0.00014432483295 -3.5212895455e-05
          -7.0538175351e-05 6.9599200287e-06 1.4175866454e-05 -1.337116646e-05 5.1619001169e-05 0.00028295861557
          0.00032326666405 -0.00029950842145 -5.7699169702e-05 0.00011821000226 -6.8269706389e-05 -1.8585447833e-05