<VTKFile type="UnstructuredGrid" version="1.0" byte_order="LittleEndian" header_type="UInt64">
  <UnstructuredGrid>
    <Piece NumberOfPoints="791" NumberOfCells="973">
      <PointData>
        <DataArray type="Float32" Name="ux" format="ascii" RangeMin="-1.2598955631" RangeMax="1.2586026192">
          0.0007925707032 0.00057068496244 0.00042158909491 -1.7171802028e-05 -0.00082509871572 -0.00043838264537
          -0.00057778751943 0.00079601351172 0.00083999626804 0.00033817035728 -9.3510143415e-06 -0.00083307304885
          -0.00081504601985 -0.00034571124706 0.00085357844364 0.00031639408553 -0.000894769968 -0.00035773072159
          7.5594347436e-05 3.2822273965e-07 -6.0024896811e-05 0.00011534811347 -8.5519990535e-05 -0.00014598388225
          -2.1406976884e-05 0.00012161453196 -1.3561082596e-05 0.04490115121 0.044644009322 0.044922087342
          0.020203663036 0.020159445703 0.020212836564 0.044520333409 0.02008417435 0.044498316944
          0.019924635068 0.044598955661 0.044461555779 0.04446079582 0.020312672481 0.020242288709
          0.020098688081 0.04481292516 0.020669985563 0.044532254338 0.020169911906 0.044489871711
          0.020183421671 0.044261194766 0.019888840616 0.044797670096 0.020637305453 0.044421929866
          0.020195823163 0.044228896499 0.01985417679 0.044537588954 0.01996967569 0.076998285949
          0.076807111502 0.077014811337 0.076702691615 0.076648518443 0.076811216772 0.076699376106
          0.076665133238 0.077031008899 0.076730974019 0.076706573367 0.076480187476 0.077013969421
          0.076663613319 0.07644943893 0.076687142253 0.11636842042 0.11618576944 0.11638596654
          0.11608977616 0.11604759842 0.11618572474 0.1160800904 0.11605509371 0.11638119817
          0.11611439288 0.11609008908 0.11588773876 0.11636650562 0.11604639143 0.11585784703
          0.11608499289 0.16227948666 0.1621183902 0.16229793429 0.16202874482 0.16198691726
          0.16211678088 0.16202434897 0.1620003134 0.16229508817 0.16205218434 0.16202872992
          0.16185042262 0.16227988899 0.16198901832 0.16181623936 0.16202768683 0.21412111819
          0.21398073435 0.21414355934 0.21389527619 0.2138543576 0.21398000419 0.21390286088
          0.21387845278 0.21414084733 0.21392042935 0.21389573812 0.21374869347 0.21412174404
          0.21385635436 0.21369948983 0.21390599012 0.27127510309 0.27115520835 0.27130100131
          0.27107408643 0.2710339427 0.2711545229 0.27109253407 0.27106794715 0.27129882574
          0.27110013366 0.27107447386 0.27095782757 0.27127560973 0.27103555202 0.27089473605
          0.27109533548 0.333142519 0.33304071426 0.33316886425 0.33296591043 0.33292818069
          0.33304014802 0.33299106359 0.33296683431 0.33316761255 0.33299157023 0.33296588063
          0.33287405968 0.33314236999 0.33292853832 0.33280465007 0.3329924345 0.39912605286
          0.39904171228 0.39915296435 0.39897295833 0.39893779159 0.3990418911 0.39900571108
          0.39898130298 0.39915335178 0.39899837971 0.39897274971 0.39890572429 0.39912545681
          0.39893677831 0.39882901311 0.39900511503 0.46865475178 0.46858566999 0.46868097782
          0.46852362156 0.46849146485 0.46858537197 0.46856018901 0.46853670478 0.46868148446
          0.46854752302 0.46852272749 0.46847614646 0.46865233779 0.46848851442 0.46839678288
          0.46855846047 0.54119086266 0.54113429785 0.54121363163 0.54108142853 0.54105395079
          0.54113417864 0.54111534357 0.54109454155 0.5412145853 0.54110223055 0.54108023643
          0.54104536772 0.54118812084 0.54105043411 0.54097414017 0.54111284018 0.61622834206
          0.61618167162 0.61624574661 0.61613970995 0.61611819267 0.61618196964 0.61616593599
          0.61614918709 0.6162468791 0.61615604162 0.61613875628 0.61610883474 0.61622595787
          0.6161147356 0.61605352163 0.6161634326 0.69329077005 0.6932541728 0.69330471754
          0.6932207942 0.69320380688 0.69325405359 0.69324213266 0.69322866201 0.69330489635
          0.69323384762 0.69321984053 0.69319742918 0.69328802824 0.69320058823 0.69315266609
          0.69324022532 0.7719386816 0.77191185951 0.77194982767 0.7718859911 0.77187269926
          0.77191185951 0.77190411091 0.77189338207 0.77195066214 0.77189642191 0.77188521624
          0.7718706131 0.77193659544 0.77186989784 0.77183365822 0.77190232277 0.85177701712
          0.85175901651 0.85178625584 0.85173910856 0.85172861814 0.85175865889 0.85175532103
          0.85174673796 0.85178631544 0.85174745321 0.85173791647 0.85173219442 0.85177409649
          0.8517255187 0.85170000792 0.85175383091 0.93245220184 0.93244242668 0.93246090412
          0.93242698908 0.93241888285 0.93244230747 0.93244343996 0.93243610859 0.93246114254
          0.93243420124 0.93242609501 0.93242889643 0.93244999647 0.93241620064 0.93239915371
          0.93244194984 1.0136684179 1.0136643648 1.0136754513 1.0136537552 1.0136475563
          1.013664484 1.0136669874 1.0136618614 1.0136756897 1.0136592388 1.0136535168
          1.0136592388 1.0136679411 1.013646841 1.0136358738 1.0136662722 1.0951983929
          1.0951987505 1.095204711 1.0951910019 1.0951861143 1.0951992273 1.0952033997
          1.0951993465 1.0952054262 1.0951957703 1.0951910019 1.0952003002 1.0951985121
          1.0951856375 1.0951795578 1.0952029228 1.1768740416 1.1768776178 1.1768807173
          1.1768708229 1.1768660545 1.1768774986 1.1768836975 1.1768802404 1.1768807173
          1.1768754721 1.1768707037 1.1768841743 1.1768736839 1.1768658161 1.1768625975
          1.1768835783 1.2585892677 1.2585941553 1.2585959435 1.2585878372 1.2585834265
          1.2585940361 1.2586009502 1.2585974932 1.2585959435 1.2585921288 1.2585875988
          1.2586026192 1.2585891485 1.2585831881 1.2585809231 1.258600831 -0.0006342891138
          0.0015126160579 -0.00062995031476 0.0022483852226 0.0008304824587 0.0057358290069 0.0061850203201
          0.003547498025 0.0080922627822 0.0035884797107 0.004858224187 0.0033773693722 0.0080462163314
          0.0061376704834 0.0033485845197 0.00086895318236 0.00073865544982 0.00099113665055 0.0017634233227
          -1.4516752344e-05 0.00041909670108 0.0017182745505 0.00097033055499 -0.020126625896 -0.020074166358
          -0.020123586059 -0.044798668474 -0.044539075345 -0.044815719128 -0.02000932768 -0.044418063015
          -0.019857004285 -0.044398516417 -0.020228251815 -0.020146775991 -0.020007330924 -0.044494595379
          -0.044355828315 -0.044354759157 -0.020584449172 -0.044708609581 -0.020087696612 -0.044428247958
          -0.02010859549 -0.044387418777 -0.019787762314 -0.044153414667 -0.020561909303 -0.044694326818
          -0.020128531381 -0.044320262969 -0.019789936021 -0.044129047543 -0.019870927557 -0.044429097325
          -0.076855756342 -0.076670266688 -0.076878681779 -0.076560407877 -0.076501868665 -0.076675385237
          -0.07657083869 -0.076532810926 -0.076896749437 -0.076593317091 -0.076564483345 -0.076353400946
          -0.076872520149 -0.076517157257 -0.076301179826 -0.07655711472 -0.11616786569 -0.11599634588
          -0.11619907618 -0.11588831246 -0.11583727598 -0.11599681526 -0.11590580642 -0.11587378383
          -0.11619522423 -0.11592189968 -0.11588899046 -0.11571761966 -0.11616709828 -0.11583666503
          -0.11564423889 -0.1159100011 -0.16200400889 -0.16185820103 -0.16204169393 -0.16175118089
          -0.16169650853 -0.16185688972 -0.16178496182 -0.16175113618 -0.16203972697 -0.16178736091
          -0.1617513001 -0.16161671281 -0.16200515628 -0.16169926524 -0.1615203619 -0.1617873162
          -0.21375565231 -0.21363130212 -0.21379895508 -0.21352677047 -0.2134719342 -0.21363092959
          -0.21357640624 -0.21354104578 -0.21379750967 -0.21356582642 -0.21352738142 -0.21342839301
          -0.2137568146 -0.21347393095 -0.21331056952 -0.21357859671 -0.27082020044 -0.27071833611
          -0.27087035775 -0.27061471343 -0.27055829763 -0.27071771026 -0.27068194747 -0.27064451575
          -0.27086877823 -0.27065691352 -0.27061492205 -0.2705540061 -0.27082073689 -0.27055981755
          -0.27041098475 -0.27068376541 -0.33260723948 -0.3325291276 -0.3326664567 -0.33242437243
          -0.33236521482 -0.33252829313 -0.33251267672 -0.33247241378 -0.33266460896 -0.3324713707
          -0.33242478967 -0.33240514994 -0.33260783553 -0.33236688375 -0.332231462 -0.33251497149
          -0.39854428172 -0.39849004149 -0.39861360192 -0.39838325977 -0.39831995964 -0.39848935604
          -0.39849457145 -0.39845120907 -0.39861169457 -0.39843562245 -0.39838370681 -0.39840739965
          -0.39854466915 -0.39832168818 -0.39819872379 -0.39849701524 -0.46807411313 -0.46804177761
          -0.46815130115 -0.46793445945 -0.46786889434 -0.46804121137 -0.4680646956 -0.46801880002
          -0.4681494832 -0.46799084544 -0.46793472767 -0.46799635887 -0.46807417274 -0.46786987782
          -0.46775984764 -0.46806693077 -0.54065412283 -0.54064136744 -0.54073733091 -0.54053497314
          -0.54046779871 -0.54064071178 -0.54068022966 -0.54063284397 -0.54073566198 -0.54059427977
          -0.54053491354 -0.54062920809 -0.54065388441 -0.54046833515 -0.54037117958 -0.54068213701
          -0.61576759815 -0.61577373743 -0.61585736275 -0.61566710472 -0.61559844017 -0.61577290297
          -0.61582875252 -0.61577916145 -0.61585539579 -0.6157297492 -0.61566698551 -0.61579442024
          -0.61576682329 -0.61559838057 -0.6155127883 -0.61583042145 -0.69293987751 -0.69296514988
          -0.69303768873 -0.6928563118 -0.69278430939 -0.69296455383 -0.69303870201 -0.69298505783
          -0.69303685427 -0.69292360544 -0.69285595417 -0.69301980734 -0.69293862581 -0.69278341532
          -0.69270807505 -0.69303900003 -0.77172803879 -0.77177262306 -0.77183544636 -0.7716601491
          -0.77158379555 -0.77177244425 -0.7718642354 -0.77180659771 -0.77183538675 -0.77173304558
          -0.77165973186 -0.77185988426 -0.77172708511 -0.77158272266 -0.77151554823 -0.77186363935
          -0.85173362494 -0.85179340839 -0.85184723139 -0.8516792655 -0.85160052776 -0.85179358721
          -0.85189968348 -0.85183900595 -0.85184818506 -0.85175585747 -0.85167884827 -0.85190784931
          -0.85173279047 -0.85159915686 -0.85154008865 -0.85189813375 -0.93260151148 -0.93267399073
          -0.93272024393 -0.93255889416 -0.93247807026 -0.93267416954 -0.93279117346 -0.932728827
          -0.93272137642 -0.93263816833 -0.93255835772 -0.93281000853 -0.9326004982 -0.93247634172
          -0.93242406845 -0.93278944492 -1.0140326023 -1.0141152143 -1.0141555071 -1.0139992237
          -1.0139170885 -1.0141150951 -1.0142406225 -1.0141772032 -1.0141559839 -1.0140807629
          -1.0139987469 -1.0142681599 -1.0140311718 -1.0139154196 -1.0138685703 -1.0142393112
          -1.0957865715 -1.0958766937 -1.0959125757 -1.0957604647 -1.0956771374 -1.0958766937
          -1.0960078239 -1.0959439278 -1.0959128141 -1.0958433151 -1.0957602262 -1.0960419178
          -1.0957860947 -1.0956764221 -1.0956332684 -1.0960072279 -1.177687645 -1.177781105
          -1.1778140068 -1.1776661873 -1.1775830984 -1.177781105 -1.1779141426 -1.1778507233
          -1.1778140068 -1.1777489185 -1.1776659489 -1.177951932 -1.1776874065 -1.17758286
          -1.1775425673 -1.1779141426 -1.2596269846 -1.2597222328 -1.2597543001 -1.2596070766
          -1.2595235109 -1.2597222328 -1.2598564625 -1.2597930431 -1.2597541809 -1.2596904039
          -1.2596071959 -1.2598955631 -1.259627223 -1.2595237494 -1.2594840527 -1.2598567009
          0.00064777431544 -0.0014759353362 0.0006613766891 -0.0022234299686 -0.0008221808821 -0.0056821811013
          -0.0061135245487 -0.0034923462663 -0.008027384989 -0.0035467578564 -0.0048221582547 -0.0033088068012
          -0.0079964930192 -0.006106116809 -0.0033331504092 -0.00081518507795 -0.00071450532414 -0.0009426017059
          -0.0017164470628 1.7603953893e-05 -0.00041662793956 -0.001689650584 -0.00096974155167 5.1802886446e-05
          -1.2450603208e-05 -7.6791438914e-05 -0.00017476409266 -1.3186133401e-05 0.00014971093333 -1.4009935512e-05
          -0.0001778970036 -1.5350944523e-05 -8.1535406935e-05 4.7658213589e-05 -1.8296257622e-05 0.00014971217024
          -7.5832490438e-06 -7.4304324471e-07 6.5933986662e-06 2.6058029107e-05 2.8063237778e-07 -2.5078945328e-05
          1.0113899407e-06 2.7587631848e-05 1.7525618432e-06 9.811408745e-06 -4.8546939979e-06 2.7902933653e-06
          -2.4285043764e-05 1.9625613277e-05 1.9432209228e-05 1.952259845e-05 1.6629039237e-05 2.0090428734e-05
          2.2755750251e-05 2.0570532797e-05 1.7855090846e-05 2.1031482902e-05 2.2542486477e-05 2.0875737391e-05
          2.1974488845e-05 2.3171211069e-05 2.8425087294e-05 2.7269394195e-05 2.6755153158e-05 2.8137006666e-05
          2.875701648e-05 2.8019030651e-05 2.9600443668e-05 2.9987790185e-05 3.0328896173e-05 3.1161325751e-05
          3.1038154702e-05 3.1740226405e-05 2.8862814361e-05 1.2931083802e-05 1.2415037418e-05 1.3629844943e-05
          1.5489422367e-05 1.4845458281e-05 1.5316900317e-05 1.6252619389e-05 1.7160256903e-05 1.7495876818e-05
          1.8386961528e-05 1.9121489458e-05 1.9227458324e-05 1.77921047e-05 0 0
          0 0 0 0 0 0
          0 0 0 0 0
        </DataArray>
        <DataArray type="Float32" Name="uy" format="ascii" RangeMin="-0.0007670102641" RangeMax="0.00041082760436">
          -8.1384889199e-05 1.943499592e-05 -2.5562876544e-05 -0.00012692749442 -0.00010067015683 -4.7008288675e-05
          3.3388128031e-06 8.0458492448e-05 0.00019640682149 0.00018043041928 9.8787662864e-05 0.00018065351469
          6.25887551e-05 0.00017093974748 -0.0002240868198 -0.00018973067927 -0.00024734030012 -0.00020389696874
          -8.1723883341e-05 0.00019126789994 -0.00010473730072 -0.00011222415924 -0.00013270469208 8.1615391537e-05
          -0.000216082728 0.00011095824448 -1.6681089619e-05 -0.00039926185855 -0.00014548211766 -1.2192159375e-05
          -0.00033894419903 -0.0001043380762 1.7017016944e-05 -0.00027834239881 -0.00021648970142 -0.00051640474703
          -0.00045018611127 -0.0002322820219 -0.00049405591562 -0.00018909825303 -0.00018945547345 -0.00046400690917
          -0.00016184868582 -0.00036934175296 -0.00033621219336 -0.00018751945754 -0.0001400965557 -9.240613872e-05
          -3.0438361136e-05 -0.00019201850228 -0.00015412787616 3.0074852475e-05 8.9116510935e-05 0.00015245411487
          0.00022047993843 -0.00018343111151 -0.0001208335816 0.00010780923185 0.00013487464457 -0.00042897253297
          -0.00019043729117 -6.7421948188e-05 -0.00031725957524 -0.00053897767793 -0.00026928028092 -0.0005009630695
          -0.00022889865795 -0.00039111150545 -0.00023030223383 -0.00014596685651 -0.00022664047719 -3.659273716e-05
          7.2437534982e-05 -0.00023193807283 4.7018784244e-05 -0.00043925642967 -0.00022346759215 -0.00011273856217
          -0.00033694779268 -0.00053768762155 -0.0002939158876 -0.00050655211089 -0.00025761235156 -0.00040571260615
          -0.00025861969334 -0.00018077337882 -0.00025638900115 -7.9260193161e-05 2.0620371288e-05 -0.000258349668
          -8.7552098194e-06 -0.00042903248686 -0.0002314234298 -0.00013289110211 -0.00033387407893 -0.00051666109357
          -0.00029246191843 -0.0004841920163 -0.00026092660846 -0.00039228360401 -0.00026181802968 -0.00019041316409
          -0.00025919309701 -9.7350974102e-05 -7.5581356214e-06 -0.00026137454552 -3.6696063034e-05 -0.00038935543853
          -0.00020815564494 -0.00012408741168 -0.00029799193726 -0.00046442766325 -0.00025411919341 -0.00042510364437
          -0.00023032970785 -0.00033920639544 -0.0002309976262 -0.00016411265824 -0.00022895162692 -7.4501062045e-05
          2.9747566259e-06 -0.00022990578145 -3.468592331e-05 -0.00031571908039 -0.00015016811085 -8.0499114119e-05
          -0.00022824338521 -0.00037874904228 -0.00018144170463 -0.0003318724921 -0.00016497616889 -0.00025230980827
          -0.00016564315592 -0.00010372213728 -0.00016369382502 -1.7801372451e-05 4.6964134526e-05 -0.00016533271992
          2.3205489015e-06 -0.00021309629665 -6.5238229581e-05 -7.4798981586e-06 -0.00013213642524 -0.00026622993755
          -8.5668216343e-05 -0.00021672650473 -7.4914234574e-05 -0.00014375925821 -7.534823817e-05 -1.9010620235e-05
          -7.4384006439e-05 6.1279068177e-05 0.00011478844681 -7.5610914791e-05 6.7025684984e-05 -0.00010110790026
          2.9680541047e-05 7.5991432823e-05 -2.6902464015e-05 -0.00014486879809 1.9762796001e-05 -9.27328947e-05
          2.4630964617e-05 -2.5975825338e-05 2.4535216653e-05 7.5332209235e-05 2.4487799237e-05 0.00015068275388
          0.00019267242169 2.3380012863e-05 0.00014211163216 7.7334938453e-08 0.00011401496158 0.00015019685088
          6.7553890403e-05 -3.4945376683e-05 0.00011291818373 1.7711508917e-05 0.00011285831715 7.7980475908e-05
          0.00011333589646 0.00015877990518 0.00011192089733 0.00022793549579 0.00026027517742 0.00011190139776
          0.00020782447245 7.5125499279e-05 0.00017099337128 0.00020022895478 0.00013237995154 4.5975881221e-05
          0.0001723747846 9.3251699582e-05 0.00017094236682 0.00014499065583 0.00017126198509 0.00020972620405
          0.00016970095749 0.00026945234276 0.00029476149939 0.00016926330863 0.00024856554228 0.00011518272368
          0.00019222855917 0.0002165613987 0.00016028231767 9.0691151854e-05 0.00019204062119 0.00012784733553
          0.00019151432207 0.00016938471526 0.00019172442262 0.00022229745809 0.00019047217211 0.00027010429767
          0.00029044278199 0.00018938595895 0.00025539298076 0.00011602222366 0.00017680658493 0.00019579089712
          0.00015189024271 9.7060430562e-05 0.00017732888227 0.00012681227236 0.00017639098223 0.000159859017
          0.00017677077267 0.00020092308114 0.00017559567641 0.00023892938043 0.00025471870322 0.00017488727462
          0.00022611260647 8.2383645349e-05 0.00012881972361 0.00014246242063 0.00011030217138 6.8317887781e-05
          0.00013086623221 9.3052389275e-05 0.00012940357556 0.00011874815391 0.00012946418428 0.00014822637604
          0.00012847695325 0.00017810065765 0.00018886003818 0.00012755535136 0.00016559050709 1.674858504e-05
          5.1040449762e-05 5.9105164837e-05 3.8362133637e-05 7.5951616054e-06 5.5474953115e-05 2.8881560866e-05
          5.2684448747e-05 4.8498568503e-05 5.3063959058e-05 6.7040382419e-05 5.1949147746e-05 9.0343273769e-05
          9.6566785942e-05 5.1284529036e-05 7.6495038229e-05 -7.9945501056e-05 -5.5947297369e-05 -5.2310795581e-05
          -6.3423380197e-05 -8.4707709902e-05 -4.9064165069e-05 -6.5852771513e-05 -5.3037540056e-05 -5.1170682127e-05
          -5.2841016441e-05 -4.2577150452e-05 -5.360808791e-05 -2.414390292e-05 -2.222841249e-05 -5.4187356e-05
          -3.9890903281e-05 -0.0002021525288 -0.0001864181977 -0.0001862103818 -0.00019020019681 -0.0002034761128
          -0.00017945634318 -0.00018880837888 -0.00018310658925 -0.00017945661966 -0.0001830195979 -0.00017608719645
          -0.00018361955881 -0.00016361972666 -0.00016340074944 -0.00018376435037 -0.00017772098363 -0.00034035180579
          -0.00033064425224 -0.00033263943624 -0.00033187901136 -0.00033951408113 -0.00032296680729 -0.00032681258745
          -0.0003267119464 -0.00032064851257 -0.00032694544643 -0.0003222989908 -0.00032671453664 -0.00031298463
          -0.00031476249569 -0.0003274322371 -0.00032660586294 -0.00048406640417 -0.00047741978779 -0.000481424795
          -0.00047653532238 -0.00048100194545 -0.00046819922864 -0.0004686882894 -0.0004729120119 -0.00046391758951
          -0.00047292240197 -0.00046924935305 -0.00047293450916 -0.00046148319962 -0.00046466456843 -0.0004728261265
          -0.00047692595399 -0.00063076376682 -0.0006253743195 -0.0006302993279 -0.00062365533086 -0.00062713003717
          -0.00061571475817 -0.00061502231983 -0.00062054092996 -0.00061085727066 -0.00062047044048 -0.00061716616619
          -0.00062065309612 -0.00061028084019 -0.00061388744507 -0.00062049570261 -0.00062615721254 -0.00028410178493
          -3.4443193726e-05 0.00010681438289 -0.00015736586647 -0.00039210615796 -0.00014232969261 -0.00042220187606
          -0.00010306477634 -0.00030368097941 -8.0088691902e-05 2.7536430935e-05 -8.5080842837e-05 0.00014209738583
          0.00027627430973 -6.9859939686e-05 0.00021654521697 -0.00010609134188 -0.00043997567263 -0.00028730230406
          -2.8536065656e-05 0.00011652135436 0.00020651708473 0.00039231067058 -0.00025491559063 -2.9869568607e-05
          0.00010123346146 -0.00037497247104 -0.00012410720228 1.1192015336e-05 -0.00014474378258 -0.00025723688304
          -0.0003732162877 -0.00049422180746 -0.00013250907068 -0.00041168811731 -9.6815703728e-05 -0.00021424330771
          -0.00047751405509 -0.00017042255786 -0.00028856226709 -0.00035244596074 -7.4053481512e-05 -0.00016796482669
          3.0963510653e-05 -7.3643386713e-05 -9.1052097559e-05 -0.00017459806986 0.00013838789891 4.7158002417e-05
          0.00027669724659 0.00017020980886 -5.4011579778e-05 -0.00016389955999 0.00021070110961 0.00012821497512
          -0.00048869999591 -0.00024619451142 -0.00012793912902 -0.00037102104397 -0.00059526925907 -0.00031513738213
          -0.0005458460073 -0.00028005903005 -0.00043173372978 -0.00028122580261 -0.00019410563982 -0.00027843739372
          -7.7633128967e-05 2.7051899451e-05 -0.00028323533479 -1.0609927813e-05 -0.00058738305233 -0.00036263425136
          -0.00026210679789 -0.0004715869436 -0.00067777722143 -0.00041289604269 -0.00062295689713 -0.00038701420999
          -0.00051417271607 -0.00038753924309 -0.00030361543759 -0.00038617377868 -0.00018815520161 -9.6123476396e-05
          -0.00038673015661 -0.00015106859792 -0.00066097680246 -0.00044949079165 -0.00036579958396 -0.00054549757624
          -0.00073681434151 -0.00048112822697 -0.0006695400225 -0.00046481419122 -0.00056588207372 -0.000465125544
          -0.00038426037645 -0.00046366680181 -0.0002709365217 -0.00019221309049 -0.00046361266868 -0.00025926274247
          -0.00070273689926 -0.00050554837799 -0.00043796369573 -0.00058880873257 -0.00076515728142 -0.00051874195924
          -0.00068610301241 -0.00051144626923 -0.00058733084006 -0.00051189830992 -0.00043471538811 -0.00051070254995
          -0.00032233441016 -0.00025754544185 -0.0005105054006 -0.00033660398913 -0.00071839377051 -0.00053406180814
          -0.00048283007345 -0.00060453003971 -0.0007670102641 -0.00052763492567 -0.00067440810381 -0.00053052144358
          -0.00057949841721 -0.00053070142167 -0.0004562761751 -0.00052976573352 -0.00034385823528 -0.00029314798303
          -0.00052935502026 -0.00038599362597 -0.00071423506597 -0.0005404726835 -0.00050737470156 -0.0005980062997
          -0.00074799009599 -0.00051195727428 -0.00063826050609 -0.00052568421233 -0.00054655247368 -0.00052593211876
          -0.00045378229697 -0.00052475422854 -0.00033977458952 -0.00030370650347 -0.00052506756037 -0.00041297520511
          -0.0006928104558 -0.00052824412705 -0.00051347148838 -0.00057295436272 -0.00071153795579 -0.0004754390684
          -0.00058112590341 -0.00050119648222 -0.00049148401013 -0.00050169305177 -0.00043063220801 -0.00050015450688
          -0.00031255205977 -0.00029207204352 -0.00050116318744 -0.00042096403195 -0.00064472388476 -0.00049070641398
          -0.000492212479 -0.00052355061052 -0.00064990477404 -0.00041772646364 -0.00050402968191 -0.00045345953549
          -0.00041715730913 -0.00045417598449 -0.00038519749069 -0.00045236258302 -0.00026521709515 -0.00025867682416
          -0.00045387246064 -0.00040261278627 -0.00057346810354 -0.00043072327389 -0.0004463790392 -0.00045265868539
          -0.00056683830917 -0.00034100512858 -0.00040934723802 -0.00038524824777 -0.00032592040952 -0.00038583527203
          -0.00031952961581 -0.00038446785766 -0.00019949015405 -0.00020523389685 -0.0003858768614 -0.00036083074519
          -0.00048982305452 -0.00035679197754 -0.0003867141204 -0.00036808868754 -0.00047155239736 -0.00024972131359
          -0.00030119600706 -0.00030276874895 -0.00022029942193 -0.00030326427077 -0.00023889196746 -0.00030227479874
          -0.00011782181537 -0.00013579278311 -0.00030348493601 -0.00030422527925 -0.00040099147009 -0.00027540215524
          -0.00032007184927 -0.00027592034894 -0.00037045180216 -0.00014792582078 -0.00018347860896 -0.00021181498596
          -0.00010288495832 -0.00021161869518 -0.0001476987527 -0.00021152295812 -2.2294356313e-05 -5.3318468417e-05
          -0.00021183914214 -0.00023947397131 -0.00031557655893 -0.0001950924925 -0.00025459218887 -0.00018547319632
          -0.00027293007588 -4.7245699534e-05 -6.8567875132e-05 -0.00012140481704 1.2517206414e-05 -0.0001212064235
          -5.6718567066e-05 -0.00012190826965 7.3715178587e-05 3.0383818739e-05 -0.00012148489623 -0.00017447785649
          -0.00023822564981 -0.00012345760479 -0.00019505243108 -0.00010568739526 -0.00018592145352 4.0485560021e-05
          3.2254720281e-05 -4.1814389988e-05 0.00011280747276 -4.1670708015e-05 2.2225205612e-05 -4.2398303776e-05
          0.00015596467711 0.00010208324966 -4.231461935e-05 -0.00011604691099 -0.00017593719531 -6.6362641519e-05
          -0.00014753126015 -4.166979852e-05 -0.00011582235311 0.00011011392053 0.00011252713011 2.1321622626e-05
          0.00019214727217 2.168797073e-05 8.4917228378e-05 2.064302862e-05 0.0002206141653 0.00015864099259
          2.085264714e-05 -6.9881018135e-05 -0.00013264856534 -2.751417378e-05 -0.00011603906751 2.7060521006e-06
          -6.6189531935e-05 0.00015783141134 0.00016882727505 6.4632055e-05 0.0002471395419 6.5003310738e-05
          0.00012752362818 6.4150903199e-05 0.00026372648426 0.00019595482445 6.4617830503e-05 -3.9415604988e-05
          -0.00010717945406 -5.2468808462e-06 -9.9258679256e-05 2.8717857276e-05 -3.5992245103e-05 0.00018677153275
          0.00020449377189 9.0631532657e-05 0.00028137702611 9.0602668934e-05 0.00015240440553 9.0374363936e-05
          0.00028900970938 0.00021679376368 9.0089131845e-05 -2.3158139811e-05 -8.6645784904e-05 1.2341753063e-05
          -8.4366693045e-05 4.8548467021e-05 -1.29946784e-05 0.00020658757421 0.00022799237922 0.00010935613682
          0.00030312140007 0.00010947526607 0.00017018188373 0.00010941471555 0.00030551443342 0.00023168465123
          0.00010939304775 -9.3120415841e-06 -7.0017536927e-05 2.8380396543e-05 -6.9418390922e-05 6.5641746914e-05
          4.7887483561e-06 0.00022407906363 0.00024682734511 0.00012622911891 0.00032160448609 0.0001264418388
          0.00018708675634 0.00012620452617 0.00032221261063 0.00024775671773 0.00012640908244 5.4529282352e-06
          -0.00019033336139 4.6279154049e-05 0.0001999916567 -8.1283440522e-05 -0.0003081325558 -8.6803891463e-05
          -0.00037196173798 -3.8015718019e-05 -0.00025954836747 -1.3024236978e-05 8.8825734565e-05 -2.0688576114e-05
          0.00018820779223 0.00033158410224 -2.1989321795e-06 0.00029880512739 -8.8558270363e-05 -0.00042269175174
          -0.0002742819488 -6.9272355177e-06 0.00013818962907 0.00022047387029 0.00041082760436 -4.2393163312e-05
          -4.1261497245e-05 -4.0661758248e-05 -2.1816187655e-05 -2.347467489e-05 -2.5854667911e-05 -2.9159962196e-06
          1.7923262931e-05 1.5413879737e-05 3.3022875868e-05 2.8736671084e-05 3.0486720789e-05 1.2119258827e-05
          -1.4924967218e-05 -1.5173115571e-05 -1.6912103092e-05 -2.0180923457e-05 -1.9255314328e-05 -1.7044698325e-05
          -2.0461342501e-05 -2.3674385375e-05 -2.1220095732e-05 -2.5293044018e-05 -2.3534044885e-05 -2.5022458431e-05
          -2.0815905373e-05 -3.1032843253e-05 -3.1934876461e-05 -3.2305582863e-05 -3.3416126826e-05 -3.1774121453e-05
          -3.0832630728e-05 -3.2414365705e-05 -3.4797976696e-05 -3.2940541132e-05 -3.3605818317e-05 -3.101963739e-05
          -3.1590789149e-05 -3.115020445e-05 -2.7429869078e-05 -2.8200654924e-05 -2.9605975215e-05 -3.1110117561e-05
          -2.8554912205e-05 -2.650200986e-05 -2.8279331673e-05 -3.1110597774e-05 -2.8016196666e-05 -2.9815861126e-05
          -2.5664843633e-05 -2.7645670343e-05 -2.5434246709e-05 -9.1700139819e-06 -1.1498068488e-05 -1.356869052e-05
          -1.4416411432e-05 -1.1328195797e-05 -8.0469335444e-06 -1.1447850738e-05 -1.4375708815e-05 -1.1791119505e-05
          -1.3780686459e-05 -1.0813365407e-05 -1.26219511e-05 -8.9447985374e-06 0 0
          0 0 0 0 0 0
          0 0 0 0 0
        </DataArray>
        <DataArray type="Float32" Name="uz" format="ascii" RangeMin="-0.057253338397" RangeMax="0.030475933105">
          0.00020832885639 0.00017923131236 0.00025643312256 0.00013649030006 0.00018665811513 0.00023265610798
          0.00015824040747 0.00023723757477 0.00027676828904 0.00024816038786 0.00013318932906 0.00024589090026
          0.00021562489565 0.00023304340721 0.00030284555396 0.00022275437368 0.00027623496135 0.00020782031061
          0.00037474246346 0.00037055753637 0.0003418084525 0.0005598028074 0.00053129775915 0.00050551060122
          0.00031378155109 0.00052694941405 9.0371417173e-05 -0.028570948169 -0.020978478715 -0.028563115746
          -0.024474849924 -0.01894926466 -0.024450197816 -0.018114572391 -0.016844443977 -0.022817105055
          -0.020209318027 -0.0059059876949 -0.0040957359597 -0.013435369357 -0.0081142932177 -0.0068184421398
          -0.013437761925 0.0016796182608 -0.0028938592877 -0.013447029516 -0.013474902138 -0.0088009405881
          -0.010142268613 -0.01343121659 -0.013392110355 0.0016569857253 -0.0029012002051 -0.004134114366
          -0.0068639614619 -0.013480532914 -0.013440802693 -0.022769641131 -0.020173324272 -0.032603804022
          -0.023029010743 -0.032592725009 -0.019390072674 -0.025313118473 -0.0039089513011 -0.0016290992498
          -0.013464283198 0.0056760874577 -0.013473078609 -0.0075725722127 -0.013453325257 0.0056608244777
          -0.0016587499995 -0.013493968174 -0.025279324502 -0.036286696792 -0.02486693114 -0.036285497248
          -0.020519124344 -0.027580041438 -0.0020779911429 0.00062878534663 -0.01346929092 0.0093386769295