<VTKFile type="UnstructuredGrid" version="1.0" byte_order="LittleEndian" header_type="UInt64">
  <UnstructuredGrid>
    <Piece NumberOfPoints="791" NumberOfCells="973">
      <PointData>
        <DataArray type="Float32" Name="ux" format="ascii" RangeMin="-0.20990623534" RangeMax="0.21082484722">
          -0.051057826728 0.029911160469 -0.077757358551 -0.063009314239 -0.051054302603 -0.077790468931
          0.029887221754 0.051765941083 0.17166405916 0.13555850089 0.063571080565 0.17165875435
          0.051760628819 0.13558109105 -0.17105409503 -0.13491548598 -0.17103129625 -0.13483220339
          0.097517244518 0.17095153034 0.097505494952 0.19487500191 0.19485466182 -0.1942242831
          -0.17025482655 -0.19425667822 0.00040795558016 -0.061400990933 0.030745413154 0.061477657408
          -0.060625907034 0.03056102246 0.060895808041 -0.080340243876 -0.079595148563 -0.16072683036
          -0.15929509699 0.030721759424 0.16068574786 0.099361985922 0.030663173646 0.16007678211
          0.098798468709 0.061387006193 0.061302058399 3.7474357669e-05 0.00013188048615 -0.080305233598
          -0.079747639596 0.1986720562 0.19753703475 -0.061315860599 -0.061009753495 -0.16061095893
          -0.15981861949 -0.19860167801 -0.19726268947 0.16080102324 0.15956431627 -0.061992894858
          0.030887586996 0.061903513968 -0.080990761518 -0.16207143664 0.030793240294 0.16140845418
          0.099910028279 0.061552174389 -4.7551126045e-05 -0.080837190151 0.19987121224 -0.0616498366
          -0.16149565578 -0.19996641576 0.1619681567 -0.06255608052 0.031039075926 0.0623354204
          -0.081593491137 -0.16330006719 0.030873274431 0.16208867729 0.10043188184 0.061720084399
          -0.00011494713544 -0.08132532984 0.20097717643 -0.06195672974 -0.16230593622 -0.20120841265
          0.16305713356 -0.063050799072 0.031186383218 0.062728904188 -0.082140021026 -0.164419204
          0.030965097249 0.16277490556 0.10093599558 0.061908610165 -0.00016696182138 -0.081782110035
          0.20203909278 -0.06225194037 -0.16309176385 -0.20237401128 0.16406792402 -0.063484936953
          0.031333617866 0.063094817102 -0.082631088793 -0.16542451084 0.031069580466 0.16345769167
          0.10142160952 0.062116421759 -0.00020210760704 -0.082204096019 0.20304496586 -0.062532007694
          -0.16384166479 -0.20345042646 0.16499949992 -0.063857108355 0.031478866935 0.063429377973
          -0.08306697011 -0.16631706059 0.03118587099 0.1641394943 0.10188807547 0.062343474478
          -0.00022138365603 -0.082592695951 0.20399734378 -0.062798924744 -0.16455961764 -0.20444117486
          0.16585126519 -0.064168348908 0.031622096896 0.063733235002 -0.083448402584 -0.16709771752
          0.031313296407 0.16481840611 0.10233482718 0.062588691711 -0.00022533125593 -0.082948341966
          0.2048946768 -0.063052788377 -0.16524516046 -0.2053463459 0.16662271321 -0.06442078203
          0.031761184335 0.064004540443 -0.083776883781 -0.16776834428 0.031449191272 0.165489465
          0.10275878012 0.06284840405 -0.00021596279112 -0.083271771669 0.20573328435 -0.063294053078
          -0.16589722037 -0.20616599917 0.16731202602 -0.064617522061 0.031895361841 0.064243964851
          -0.084054671228 -0.16833329201 0.031591948122 0.1661491394 0.10315895826 0.063119977713
          -0.00019447455998 -0.083563692868 0.20651218295 -0.063522510231 -0.16651463509 -0.20690175891
          0.16792078316 -0.064763367176 0.032023310661 0.064451850951 -0.084285259247 -0.16879934072
          0.031739130616 0.16679221392 0.10353367776 0.063399277627 -0.00016288882762 -0.083825409412
          0.20723009109 -0.063737906516 -0.16709625721 -0.20755672455 0.16845133901 -0.064860515296
          0.032146062702 0.064631387591 -0.084469176829 -0.16917009652 0.031889971346 0.16741345823
          0.10388275981 0.063683189452 -0.00012102567416 -0.084054857492 0.20788647234 -0.063936762512
          -0.16763585806 -0.20812925696 0.1689080745 -0.064913004637 0.032264079899 0.064785659313
          -0.084608338773 -0.16945177317 0.032043024898 0.16800618172 0.10420558602 0.063967384398
          -6.9311434345e-05 -0.084250807762 0.20848020911 -0.064115963876 -0.16812795401 -0.20861959457
          0.16929590702 -0.064926035702 0.032377656549 0.064918160439 -0.084705866873 -0.16965265572
          0.032196510583 0.16856393218 0.10450173169 0.064247518778 -8.5034334916e-06 -0.084412448108
          0.20901176333 -0.064272157848 -0.16856701672 -0.20902948081 0.16962137818 -0.064904108644
          0.032488308847 0.065033912659 -0.084763742983 -0.16978049278 0.032348893583 0.16907893121
          0.10477122664 0.064518101513 6.1317739892e-05 -0.084537900984 0.2094809562 -0.064401209354
          -0.16894552112 -0.20935890079 0.16989223659 -0.064852438867 0.032597236335 0.065137922764
          -0.084784246981 -0.1698435545 0.032498702407 0.16954253614 0.1050138101 0.064774006605
          0.00014015086344 -0.084624886513 0.20988731086 -0.064497947693 -0.16925489902 -0.20960763097
          0.17011618614 -0.064777508378 0.032704327255 0.065233662724 -0.084770686924 -0.1698513031
          0.032643117011 0.16994404793 0.10522759706 0.065008223057 0.00022655715293 -0.084671579301
          0.21022862196 -0.064557664096 -0.16948638856 -0.20977585018 0.17029964924 -0.064689069986
          0.032806854695 0.065322898328 -0.084729932249 -0.16981719434 0.032775957137 0.17026974261
          0.10540810972 0.065210364759 0.00031620552181 -0.08468002826 0.21050000191 -0.064579315484
          -0.16963513196 -0.20986776054 0.17044726014 -0.064595282078 0.032903317362 0.065408118069
          -0.084667079151 -0.16975300014 0.032893098891 0.17050801218 0.10555247217 0.065372169018
          0.00040625341353 -0.084650725126 0.21069870889 -0.06456027925 -0.16969506443 -0.20988634229
          0.1705648154 -0.064503550529 0.032995119691 0.065495625138 -0.084586165845 -0.16967077553
          0.032992158085 0.17064853013 0.10566042364 0.065486773849 0.0004960509832 -0.084581278265
          0.21082484722 -0.064494714141 -0.16965638101 -0.20983283222 0.17066264153 -0.060548875481
          0.030611274764 0.06116778776 -0.079004891217 -0.15827406943 0.030534433201 0.15898130834
          0.098187714815 0.06096624583 0.00027406052686 -0.078994378448 0.19617733359 -0.060483682901
          -0.15854097903 -0.19566041231 0.15884487331 0.030484439805 0.15842856467 0.06075720489
          0.00028360547731 -0.078668378294 -0.060252666473 -0.15785828233 -0.060616128147 0.030579553917
          0.060915969312 -0.061384979635 0.030768264085 0.061503041536 -0.079584538937 -0.080326274037
          -0.15929365158 -0.1607183814 0.030681455508 0.16010560095 0.098822206259 0.030744694173
          0.16071894765 0.09939032793 0.06132273376 0.061412330717 0.00014787954569 5.8022080339e-05
          -0.079737901688 -0.080291129649 0.19756910205 0.19870813191 -0.060998722911 -0.061300322413
          -0.15981575847 -0.16060318053 -0.19726401567 -0.1985963434 0.15959231555 0.16083425283
          -0.061975434422 0.030911587179 0.061929397285 -0.080974377692 -0.16206075251 0.030817378312
          0.16144180298 0.09993892163 0.06157848984 -2.5595303669e-05 -0.080820858479 0.19990703464
          -0.06163232401 -0.16148512065 -0.19995842874 0.16200096905 -0.062540769577 0.031060187146
          0.062358245254 -0.081579253078 -0.16329070926 0.030894538388 0.16211822629 0.10045736283
          0.061743225902 -9.562473133e-05 -0.081311009824 0.2010089457 -0.061941321939 -0.1622967124
          -0.20120146871 0.16308626533 -0.063040368259 0.031202187762 0.06274626404 -0.082130514085
          -0.16441434622 0.030981175601 0.16279858351 0.10095596313 0.061926562339 -0.00015273618919
          -0.081772580743 0.20206475258 -0.062241274863 -0.16308701038 -0.20237129927 0.16409114003
          -0.063482344151 0.031341757625 0.063104681671 -0.082629539073 -0.16542764008 0.031077917665
          0.16347387433 0.10143400729 0.062126595527 -0.00019568364951 -0.082202546299 0.20306326449
          -0.06252938509 -0.16384498775 -0.20345580578 0.16501539946 -0.063863225281 0.031478065997
          0.063430383801 -0.083074241877 -0.16632895172 0.031185101718 0.16414627433 0.10189127922
          0.062344498932 -0.00022398489818 -0.082600004971 0.20400631428 -0.062805123627 -0.16457165778
          -0.20445539057 0.16585797071 -0.06418274343 0.031613145024 0.063726380467 -0.083464227617
          -0.16711847484 0.031304236501 0.16481737792 0.10232999921 0.062581606209 -0.0002362535015
          -0.082964204252 0.20489598811 -0.063067361712 -0.16526602209 -0.20536962152 0.16662183404
          -0.0644396469 0.031748618931 0.063994385302 -0.083797313273 -0.16779448092 0.031436432153
          0.16548572481 0.1027508527 0.062837906182 -0.00023077735386 -0.083292245865 0.20573221147
          -0.063313066959 -0.1659232825 -0.20619493723 0.16730853915 -0.064636513591 0.031883858144
          0.064235076308 -0.084075309336 -0.16836057603 0.031580332667 0.1661478132 0.10315284133
          0.063110895455 -0.00020848275744 -0.08358424902 0.20651388168 -0.063541322947 -0.16654160619
          -0.20693208277 0.16791974008 -0.06477868557 0.032016262412 0.064447596669 -0.084302306175
          -0.16882364452 0.031732041389 0.16679665446 0.10353267193 0.063394971192 -0.00017279367603
          -0.083842381835 0.20723792911 -0.063753008842 -0.16712020338 -0.2075842768 0.16845592856
          -0.064870260656 0.032145373523 0.064633794129 -0.084480814636 -0.16918970644 0.031889315695
          0.16742558777 0.10388881713 0.063685618341 -0.00012473364768 -0.08406650275 0.20790223777
          -0.063946507871 -0.16765549779 -0.20815263689 0.16892014444 -0.064915470779 0.03227077052
          0.064795397222 -0.08461279422 -0.16946427524 0.032049797475 0.16802617908 0.10421921313
          0.063977345824 -6.5635358624e-05 -0.084255285561 0.20850391686 -0.064118556678 -0.1681407094
          -0.20863617957 0.16931563616 -0.064920507371 0.032391544431 0.06493473053 -0.084702096879
          -0.1696561873 0.032210294157 0.16858996451 0.10452196002 0.064264073968 2.5975177778e-06
          -0.08440887183 0.20904125273 -0.064267024398 -0.16857096553 -0.20903667808 0.16964715719
          -0.064893320203 0.03250683099 0.065054826438 -0.084754355252 -0.16977776587 0.032367322594
          0.1691083461 0.10479550064 0.064539007843 7.732064114e-05 -0.084528662264 0.20951360464
          -0.064390651882 -0.16894309223 -0.20935937762 0.16992148757 -0.064841531217 0.032615121454
          0.065157808363 -0.084774486721 -0.1698397547 0.032516717911 0.16957044601 0.1050369963
          0.064794249833 0.00015583744971 -0.084615059197 0.20991815627 -0.064486883581 -0.16925112903
          -0.20960655808 0.17014381289 -0.064772367477 0.032716106623 0.065247513354 -0.084766693413
          -0.16985300183 0.032655119896 0.16996531188 0.10524443537 0.065022394061 0.0002363173262
          -0.084667474031 0.21025252342 -0.064552173018 -0.16948790848 -0.2097800076 0.17032070458
          -0.064692161977 0.032810110599 0.065328173339 -0.084734268486 -0.1698269695 0.032779410481
          0.17028211057 0.10541618615 0.065216042101 0.00031748792389 -0.084684170783 0.21051488817
          -0.064582027495 -0.1696447283 -0.2098800391 0.17045947909 -0.064606167376 0.032898653299
          0.065405547619 -0.084679156542 -0.169770509 0.032888617367 0.1705121845 0.10555250943
          0.065369859338 0.0003995934967 -0.084662623703 0.21070542932 -0.064570754766 -0.16971226037
          -0.20990623534 0.17056894302 -0.064521335065 0.032983601093 0.06548627466 -0.084605269134
          -0.16969533265 0.032980546355 0.17064575851 0.1056535244 0.06547729671 0.00048242439516
          -0.084600418806 0.21082463861 -0.064512550831 -0.16968084872 -0.20985984802 0.17065992951
          -0.060539349914 0.030623311177 0.061184875667 -0.079003825784 -0.15826869011 0.030549354851
          0.15900602937 0.098207384348 0.060984123498 0.0002853407932 -0.078989051282 0.1962030977
          -0.060475319624 -0.15853926539 -0.19565692544 0.15887050331 0.030491530895 0.15843912959
          0.060764573514 0.00029715517303 -0.078661322594 -0.060249213129 -0.15786214173 0.10296127945
          0.12748385966 0.10296675563 0.039327159524 0.049067683518 0.039329871535 0.00017744745128
          -0.038941532373 -0.048650342971 -0.10257826746 -0.1025986746 -0.1271032393 -0.038940310478
          0.077262423933 0.095300853252 0.07726136595 0.029650846496 0.036849889904 0.029649779201
          0.00012869923376 -0.029399443418 -0.036607734859 -0.077009864151 -0.077004984021 -0.095047436655
          -0.029400134459 0.054549947381 0.067354992032 0.054550331086 0.020891120657 0.026023568586
          0.020891390741 6.4706036937e-05 -0.020758368075 -0.025890607387 -0.054420303553 -0.054421212524
          -0.067226089537 -0.020757947117 0.034404210746 0.042447607964 0.034404013306 0.013180640526
          0.016417011619 0.013180569746 2.7706777473e-05 -0.013124272227 -0.016362756491 -0.034349165857
          -0.03434914723 -0.042393036187 -0.013124586083 0.016337763518 0.020116984844 0.016337713227
          0.0062664346769 0.0078292479739 0.0062663787976 6.1139512582e-06 -0.0062521668151 -0.0078169237822
          -0.016325490549 -0.016325762495 -0.020105374977 -0.0062524056993 0 0
          0 0 0 0 0 0
          0 0 0 0 0
        </DataArray>
        <DataArray type="Float32" Name="uy" format="ascii" RangeMin="-1.1842221022" RangeMax="1.1842727661">
          0.15547759831 0.1469206512 0.14055965841 -1.23303289e-05 -0.15547679365 -0.14057326317
          -0.14693121612 0.15536734462 0.15209531784 0.096773266792 -4.4124094529e-06 -0.15210483968
          -0.15537373722 -0.096781760454 0.15204446018 0.097021572292 -0.15204709768 -0.097030937672
          0.13001932204 -5.3033081713e-06 -0.13003209233 0.13047288358 -0.1304846555 -0.13026766479
          -1.7635225049e-06 0.13024760783 -8.2077795014e-06 -0.8799880147 -0.78548401594 -0.87999308109
          -0.83115255833 -0.73746973276 -0.83113223314 -0.74938720465 -0.70167660713 -0.8077647686
          -0.7597053647 -0.59654158354 -0.57420420647 -0.69099318981 -0.54974371195 -0.52778053284
          -0.64370959997 -0.50208103657 -0.45583158731 -0.69100487232 -0.64365369081 -0.63261342049
          -0.58566474915 -0.69095748663 -0.64387786388 -0.50207906961 -0.4558378458 -0.57420003414
          -0.52779477835 -0.69095957279 -0.64386510849 -0.80776482821 -0.75971060991 -0.92739999294
          -0.83219712973 -0.92740654945 -0.79579430819 -0.85444563627 -0.64207094908 -0.61943900585
          -0.73698437214 -0.54716134071 -0.73707437515 -0.67828911543 -0.73672825098 -0.54715186357
          -0.61943805218 -0.73673415184 -0.85444414616 -0.96747106314 -0.87160277367 -0.96748495102
          -0.83492004871 -0.89385038614 -0.68035131693 -0.65745025873 -0.77572268248 -0.58498030901
          -0.77587622404 -0.71671980619 -0.77528893948 -0.58496528864 -0.65744817257 -0.77529931068
          -0.8938498497 -0.99513292313 -0.89865475893 -0.99515128136 -0.86171656847 -0.92091614008
          -0.70634508133 -0.68320947886 -0.80215930939 -0.61053299904 -0.80236470699 -0.74286222458
          -0.80157923698 -0.61051303148 -0.68320709467 -0.80159264803 -0.92091596127 -1.0062839985
          -0.90924835205 -1.0063060522 -0.87208050489 -0.93154269457 -0.71594852209 -0.69261199236
          -0.81219238043 -0.61970663071 -0.81243735552 -0.75261414051 -0.81150126457 -0.61968296766
          -0.69260925055 -0.81151711941 -0.93154287338 -0.99780189991 -0.90026175976 -0.99782651663
          -0.86288976669 -0.92260748148 -0.70603787899 -0.68253481388 -0.80269885063 -0.60937911272
          -0.80297088623 -0.7428522706 -0.80193150043 -0.60935294628 -0.68253207207 -0.80194926262
          -0.92260783911 -0.96755075455 -0.86955899 -0.96757686138 -0.832008183 -0.89197444916
          -0.67447811365 -0.65084254742 -0.77154308558 -0.57741522789 -0.77182996273 -0.71144109964
          -0.77073442936 -0.57738780975 -0.6508398056 -0.77075308561 -0.8919749856 -0.91437155008
          -0.81598097086 -0.91439795494 -0.77827650309 -0.83848333359 -0.62011134624 -0.59637647867
          -0.71756583452 -0.52265900373 -0.71785569191 -0.65722209215 -0.71674907207 -0.52263146639
          -0.59637403488 -0.71676802635 -0.83848398924 -0.83804941177 -0.73931145668 -0.83807510138
          -0.70147764683 -0.76191598177 -0.54272156954 -0.51891893148 -0.64054960012 -0.44489562511
          -0.64083135128 -0.5799780488 -0.63975572586 -0.44486889243 -0.5189166069 -0.63977408409
          -0.76191675663 -0.73924446106 -0.64020800591 -0.73926836252 -0.60226792097 -0.66292798519
          -0.44296523929 -0.41912356019 -0.54114925861 -0.3447830379 -0.54141324759 -0.4803647995
          -0.54040592909 -0.34475800395 -0.41912135482 -0.54042333364 -0.66292840242 -0.61939436197
          -0.52010685205 -0.61941587925 -0.4820818603 -0.54295146465 -0.32227966189 -0.29842466116
          -0.42079919577 -0.22376181185 -0.4210369885 -0.35981759429 -0.42012968659 -0.2237392962
          -0.2984226346 -0.42014527321 -0.54295188189 -0.48059463501 -0.3811005652 -0.48061317205
          -0.34301051497 -0.40407547355 -0.18275812268 -0.15891163051 -0.28158926964 -0.083928368986
          -0.28179448843 -0.22042779624 -0.28101167083 -0.083908848464 -0.15890969336 -0.28102511168
          -0.40407580137 -0.32545441389 -0.22579449415 -0.32546952367 -0.18765670061 -0.24890090525
          -0.027004342526 -0.0031834247056 -0.12612040341 0.072110667825 -0.12628881633 -0.064797334373
          -0.12564696372 0.072126708925 -0.0031818416901 -0.12565803528 -0.24890100956 -0.15692804754
          -0.057139176875 -0.15693953633 -0.018968520686 -0.080373123288 0.14203087986 0.16581408679
          0.042660538107 0.24140040576 0.042530972511 0.10412564129 0.043024469167 0.24141278863
          0.16581553221 0.043016050011 -0.08037315309 0.021875875071 0.12176050246 0.021867906675
          0.15995167196 0.09840862453 0.32124194503 0.34498092532 0.22165285051 0.42083069682
          0.22156128287 0.28323817253 0.22190921009 0.4208393991 0.34498199821 0.22190324962
          0.098408773541 0.20790240169 0.30785378814 0.2078974992 0.34605583549 0.28439947963
          0.50757783651 0.53127169609 0.40781000257 0.60734534264 0.40775308013 0.46949222684
          0.40796852112 0.60735070705 0.53127241135 0.40796485543 0.28439947963 0.39836916327
          0.49836236238 0.39836674929 0.53656864166 0.474827528 0.69825911522 0.7219132185
          0.5983582139 0.79816025496 0.59832948446 0.66011166573 0.59843659401 0.79816275835
          0.72191363573 0.59843492508 0.47482725978 0.59098821878 0.69100302458 0.59098756313
          0.72920924425 0.66741472483 0.89100313187 0.9146284461 0.79101860523 0.99098771811
          0.7910092473 0.85281616449 0.79104268551 0.99098837376 0.91462856531 0.79104226828
          0.66741478443 0.78420323133 0.88422477245 0.78420329094 0.92243075371 0.86061811447
          1.08425951 1.1078746319 0.98424679041 1.1842727661 0.98424386978 1.0460591316
          0.9842517972 1.1842727661 1.1078747511 0.98425137997 0.86061799526 -0.60447508097
          -0.53806209564 -0.60447573662 -0.51275384426 -0.55401748419 -0.40429103374 -0.38904172182
          -0.47155827284 -0.33711242676 -0.47134158015 -0.43008324504 -0.4720967412 -0.33710882068
          -0.38905212283 -0.47213372588 -0.55403316021 -0.11242530495 -0.10857314616 -0.094767712057
          -0.12991066277 -0.11921767145 -0.094749718904 -0.10859848559 0.83115953207 0.73746871948
          0.83113878965 0.87997871637 0.78546750546 0.87998390198 0.70167219639 0.74936801195
          0.75970631838 0.80775004625 0.54972761869 0.52776247263 0.64370113611 0.5965102911
          0.57417118549 0.69096934795 0.45580789447 0.50204223394 0.64364510775 0.69098103046
          0.58565121889 0.63258510828 0.64386928082 0.69093382359 0.45581442118 0.5020403862
          0.52777689695 0.57416731119 0.64385610819 0.69093614817 0.75971144438 0.80775022507
          0.92737799883 0.83216863871 0.92738473415 0.79576331377 0.85441869497 0.64202928543
          0.6193959713 0.73694950342 0.54711300135 0.73703932762 0.67825001478 0.73669373989
          0.54710358381 0.61939501762 0.73669922352 0.85441768169 0.96744221449 0.87156826258
          0.96745634079 0.83488309383 0.89381706715 0.68030494452 0.65740275383 0.77568244934
          0.58492803574 0.77583581209 0.71667563915 0.77524906397 0.58491289616 0.65740042925
          0.77525889874 0.89381712675 0.99510300159 0.89861953259 0.99512147903 0.86167937517
          0.92088216543 0.70629900694 0.68316209316 0.80211883783 0.61048126221 0.80232411623
          0.74281817675 0.80153882504 0.61046129465 0.68315976858 0.80155211687 0.92088222504
          1.0062574148 0.90921634436 1.0062795877 0.87204641104 0.93151187897 0.71590542793
          0.6925675869 0.81215488911 0.6196578145 0.81239980459 0.75257325172 0.81146377325
          0.61963421106 0.69256490469 0.81147962809 0.9315122366 0.99777883291 0.90023320913
          0.99780344963 0.86285918951 0.92258036137 0.70599842072 0.68249416351 0.80266487598
          0.60933417082 0.80293691158 0.7428149581 0.80189758539 0.60930800438 0.68249136209
          0.80191540718 0.92258059978 0.96753412485 0.86953634024 0.96755999327 0.83198332787
          0.89195340872 0.67444360256 0.65080678463 0.77151447535 0.57737499475 0.77180141211
          0.71140891314 0.77070581913 0.57734745741 0.65080392361 0.77072459459 0.89195364714
          0.91436374187 0.81596624851 0.91438990831 0.77825927734 0.83847039938 0.62008339167
          0.59634709358 0.71754443645 0.52262455225 0.71783429384 0.65719646215 0.7167275548
          0.52259677649 0.59634417295 0.71674650908 0.8384706378 0.8380484581 0.73930263519
          0.83807390928 0.70146596432 0.76190918684 0.54269766808 0.51889336109 0.64053314924
          0.44486433268 0.64081496 0.57995700836 0.63973927498 0.44483739138 0.51889061928
          0.6397575736 0.76190954447 0.73924738169 0.64020252228 0.73927134275 0.60225909948
          0.66292434931 0.44294303656 0.41909942031 0.54113537073 0.34475257993 0.54139924049
          0.4803456068 0.54039210081 0.34472745657 0.41909700632 0.54040914774 0.66292494535
          0.61939924955 0.52010250092 0.61942076683 0.48207387328 0.54294931889 0.32225671411
          0.29839962721 0.4207855463 0.22372956574 0.42102330923 0.35979810357 0.42011609674
          0.22370690107 0.29839733243 0.42013147473 0.54294967651 0.48060062528 0.38109698892
          0.48061910272 0.34300324321 0.40407428145 0.18273508549 0.15888640285 0.28157603741
          0.083895646036 0.28178119659 0.22040849924 0.28099855781 0.08387607336 0.15888437629
          0.28101193905 0.40407451987 0.3254622519 0.2257938534 0.32547751069 0.1876526624
          0.24890221655 0.026986010373 0.0031630252488 0.12611110508 -0.072137989104 0.1262793988
          0.064782418311 0.1256377846 -0.072153910995 0.0031614908949 0.12564864755 0.24890266359
          0.15694154799 0.057145066559 0.15695334971 0.018971251324 0.080380611122 -0.14204095304
          -0.16582605243 -0.042662527412 -0.24141855538 -0.042533036321 -0.10413264483 -0.043026283383
          -0.24143074453 -0.16582721472 -0.043018072844 0.080381214619 -0.021853473037 -0.12174500525
          -0.021845120937 -0.15993903577 -0.098391756415 -0.32124096155 -0.34498170018 -0.22164453566
          -0.42083695531 -0.22155305743 -0.28323444724 -0.22190071642 -0.42084547877 -0.34498247504
          -0.22189496458 -0.098391115665 -0.20786765218 -0.30782556534 -0.20786246657 -0.34603026509
          -0.28436991572 -0.50756275654 -0.53125822544 -0.40778836608 -0.60733693838 -0.40773153305
          -0.46947467327 -0.40794673562 -0.60734218359 -0.53125882149 -0.40794327855 -0.28436943889
          -0.3983193934 -0.4983189702 -0.39831694961 -0.53652775288 -0.47478270531 -0.69822853804
          -0.72188413143 -0.59832125902 -0.79813605547 -0.59829246998 -0.66007864475 -0.59839963913
          -0.79813861847 -0.72188466787 -0.59839808941 -0.47478234768 -0.59092479944 -0.69094610214
          -0.5909242034 -0.72915482521 -0.66735643148 -0.89095896482 -0.91458576918 -0.7909681201
          -0.99094974995 -0.79095876217 -0.85276955366 -0.79099225998 -0.9909504652 -0.91458594799
          -0.79099184275 -0.66735631227 -0.78412741423 -0.88415527344 -0.78412741423 -0.92236375809
          -0.86054718494 -1.084202528 -1.1078190804 -0.98418354988 -1.1842221022 -0.98418068886
          -1.0459997654 -0.98418843746 -1.1842221022 -1.1078193188 -0.98418825865 -0.86054700613
          0.60448944569 0.53806966543 0.60449159145 0.51276010275 0.55402642488 0.40428170562
          0.38903057575 0.47155678272 0.33709469438 0.47134065628 0.4300789237 0.47209557891
          0.3370911479 0.38904243708 0.47213566303 0.55404257774 0.1124047935 0.10855463892
          0.094742506742 0.12989555299 0.11919481307 0.094721034169 0.10857091844 -0.074944913387
          1.770568133e-06 0.074948295951 0.12110564858 1.8154572672e-06 -0.12110225111 2.9503853511e-06
          0.12107589841 4.1455305109e-06 0.074886076152 -0.074882030487 1.0256134146e-06 -0.12107393146
          -0.055935934186 5.3493299674e-06 0.055946804583 0.090655706823 5.4273191381e-06 -0.090644814074
          5.1310275921e-06 0.090663522482 4.6829195526e-06 0.055962715298 -0.055952489376 5.2826917454e-06
          -0.090652637184 -0.039548631757 4.2384026528e-06 0.039557229728 0.064043775201 4.3288123379e-06
          -0.064035013318 4.4082416935e-06 0.064043015242 4.5149527068e-06 0.039555121213 -0.039546452463
          4.2258798203e-06 -0.064034216106 -0.024935694411 1.2880269651e-06 0.024938173592 0.040406279266
          1.2133431255e-06 -0.04040402174 1.136296305e-06 0.040407340974 1.102650117e-06 0.024940025061
          -0.024937795475 1.1719756685e-06 -0.040405143052 -0.011826911941 -4.7353037758e-07 0.011825820431
          0.019193604589 -5.5547587863e-07 -0.019194779918 -5.3825107216e-07 0.019194440916 -5.5089680018e-07
          0.011827182956 -0.011828168295 -4.8989011248e-07 -0.019195603207 0 0
          0 0 0 0 0 0
          0 0 0 0 0
        </DataArray>
        <DataArray type="Float32" Name="uz" format="ascii" RangeMin="-0.10884999484" RangeMax="0.10885111988">
          0.00074013968697 -0.00067261903314 0.0020183725283 -8.0028257798e-06 -0.00074337091064 -0.0020306517836
          0.00066597468685 -0.0007045227685 -0.0047490214929 -0.00091219227761 -3.531701168e-06 0.0047517106868
          0.00070252426667 0.00090691348305 0.0047639752738 0.0011332115391 -0.0047770431265 -0.0011523964349
          -0.0028708125465 -3.1052275062e-06 0.0028698192909 -0.0055950828828 0.0055959890597 -0.0056497356854
          -1.1831098163e-05 0.0056309844367 -4.8791598601e-06 -0.0078634396195 0.004188333638 0.0082949269563
          -0.0075246579945 0.004035142716 0.0079494016245 -0.01031033136 -0.009898093529 -0.02098464407
          -0.020063159987 0.0041474765167 0.02128772065 0.013122081757 0.003918602597 0.020161340013
          0.012574058026 0.0082105640322 0.007713986095 0.00015958574659 0.00015732613974 -0.010353789665
          -0.0098331328481 0.026327930391 0.025171427056 -0.0079790912569 -0.0075004193932 -0.021059200168
          -0.019959202036 -0.025972116739 -0.024818107486 0.021328853443 0.02044309862 -0.0071366974153
          0.0038225089666 0.0075455289334 -0.0093659553677 -0.019045706838 0.0037812402006 0.019341919571
          0.011948603205 0.0074652121402 0.00015893265663 -0.0093904118985 0.02393190749 -0.0072179525159
          -0.019100118428 -0.023582374677 0.019388930872 -0.0054509313777 0.0029747383669 0.0058411504142
          -0.0071609411389 -0.014614279382 0.0029427588452 0.014908824116 0.0092189600691 0.0057763638906
          0.00015905084729 -0.0071806907654 0.018443128094 -0.005514416378 -0.014651858248 -0.01809852384
          0.014950245619 -0.0029694666155 0.0017297794111 0.0033404643182 -0.0039156945422 -0.0080945910886
          0.0017062865663 0.0083959586918 0.0052044438198 0.0032938283402 0.00015891883231 -0.0039301705547
          0.010379015468 -0.0030163740739 -0.0081240776926 -0.010040164925 0.0084244897589 0.00014005937555
          0.00017126885359 0.00021234208543 0.00015133904526 6.7360590037e-05 0.00015669209824 0.00023877967033
          0.00017460490926 0.00018317565264 0.00015923964384 0.00014224846382 0.00028396333801 0.00011082829587
          4.9382280849e-05 4.9762715207e-05 0.00025680664112 0.0037070447579 -0.001615440473 -0.0033723174129
          0.0048169735819 0.0094266561791 -0.0016215612413 -0.0091148279607 -0.0055946726352 -0.0033845356666
          0.00015967489162 0.0048131891526 -0.011290123686 0.0036947221961 0.0094189858064 0.011619111523
          -0.0091073494405 0.0075614550151 -0.0035449410789 -0.0072425906546 0.0098582934588 0.019536426291
          -0.0035434307065 -0.01921890676 -0.011827641167 -0.0072395070456 0.00016026409867 0.0098591214046
          -0.023790989071 0.007564317435 0.019538128749 0.024115545675 -0.019220918417 0.011536611244
          -0.0055340481922 -0.011231620796 0.015057477169 0.029960405082 -0.0055258469656 -0.029637310654
          -0.018255177885 -0.011215091683 0.00016100266657 0.015062490478 -0.036679331213 0.011553026736
          0.029970498756 0.037000067532 -0.029647562653 0.015474801883 -0.0075046331622 -0.015182335861
          0.020208401605 0.040285751224 -0.0074904700741 -0.039958041161 -0.024623446167 -0.015153951012
          0.00016140956723 0.020217148587 -0.049445886165 0.015503134578 0.040303286165 0.04976259172
          -0.03997560218 0.019232310355 -0.0093851974234 -0.018951494247 0.025123631582 0.050136804581
          -0.0093655716628 -0.049805503339 -0.030700780451 -0.018912289292 0.00016159369261 0.02513579838
          -0.061626411974 0.019271558151 0.050161127001 0.061939094216 -0.049829728901 0.022684039548