<VTKFile type="UnstructuredGrid" version="1.0" byte_order="LittleEndian" header_type="UInt64">
  <UnstructuredGrid>
    <Piece NumberOfPoints="791" NumberOfCells="973">
      <PointData>
        <DataArray type="Float32" Name="ux" format="ascii" RangeMin="-0.20990423858" RangeMax="0.21083036065">
          -0.051056366414 0.029913455248 -0.077756248415 -0.063008092344 -0.051053017378 -0.077789463103
          0.029889341444 0.051768697798 0.17166776955 0.13556221128 0.063573986292 0.17166227102
          0.05176313594 0.13558460772 -0.17105390131 -0.13491506875 -0.17103123665 -0.13483189046
          0.097519934177 0.17095518112 0.097508274019 0.19487863779 0.19485834241 -0.1942243576
          -0.17025481164 -0.19425673783 0.00041008007247 -0.061394274235 0.03075286001 0.061485324055
          -0.060621030629 0.030566766858 0.060901965946 -0.080333605409 -0.079590469599 -0.160720855
          -0.15929125249 0.030729169026 0.16069415212 0.099369958043 0.030668804422 0.16008374095
          0.098804876208 0.061394561082 0.061307884753 4.4709391659e-05 0.00013728071644 -0.080298639834
          -0.079743050039 0.19868080318 0.19754451513 -0.061309158802 -0.061005033553 -0.16060493886
          -0.15981480479 -0.19859592617 -0.1972591728 0.1608094871 0.15957143903 -0.06198612228
          0.030894599855 0.061910502613 -0.080984003842 -0.16206490993 0.030800312757 0.16141584516
          0.09991723299 0.061559326947 -4.0577022446e-05 -0.080830402672 0.19987863302 -0.061643045396
          -0.16148915887 -0.19996000826 0.16197536886 -0.062550410628 0.031044291332 0.062340389937
          -0.081587791443 -0.16329391301 0.030878502876 0.16209353507 0.10043681413 0.061725217849
          -0.00010958665371 -0.081319652498 0.20098175108 -0.061951190233 -0.16230003536 -0.20120224357
          0.16306170821 -0.06304679811 0.031189404428 0.062731489539 -0.082135781646 -0.1644140929
          0.030968289822 0.16277681291 0.10093840212 0.061911549419 -0.00016352391685 -0.081777885556
          0.20204044878 -0.06224790588 -0.16308684647 -0.20236860216 0.16406948864 -0.063484169543
          0.03133335337 0.063094124198 -0.082630030811 -0.16542245448 0.031069491059 0.16345620155
          0.1014206931 0.062115993351 -0.00020192559168 -0.082203015685 0.20304295421 -0.06253118813
          -0.16383972764 -0.20344796777 0.16499783099 -0.063859544694 0.031475085765 0.063425190747
          -0.083069190383 -0.16631811857 0.031182043254 0.16413378716 0.1018832773 0.062339194119
          -0.00022476405138 -0.082594960928 0.20399110019 -0.062801487744 -0.16456077993 -0.20444175601
          0.16584557295 -0.064173959196 0.031614664942 0.063725329936 -0.083453774452 -0.16710159183
          0.031305696815 0.16480833292 0.10232597589 0.062580496073 -0.00023226432677 -0.08295378834
          0.20488396287 -0.063058584929 -0.16524909437 -0.20534959435 0.16661283374 -0.064428590238
          0.031751774251 0.063994787633 -0.083784505725 -0.16777466238 0.031439628452 0.16547763348
          0.10274809599 0.062838360667 -0.00022489701223 -0.083279393613 0.20572085679 -0.063301920891
          -0.16590341926 -0.20617169142 0.16730043292 -0.064625762403 0.031886067241 0.064234413207
          -0.084062755108 -0.16834054887 0.031582601368 0.16613803804 0.10314874351 0.063110269606
          -0.0002034217905 -0.08357167989 0.20650069416 -0.063530549407 -0.16652156413 -0.20690849423
          0.16790997982 -0.064768724144 0.032017119229 0.064445458353 -0.084290482104 -0.16880390048
          0.03173289448 0.16678461432 0.10352675617 0.063392758369 -0.00016886643425 -0.083830550313
          0.20722217858 -0.06374309957 -0.16710050404 -0.20756079257 0.16844394803 -0.064861655235
          0.03214443475 0.064629629254 -0.084470197558 -0.16917072237 0.031888373196 0.16741104424
          0.1038807407 0.063681408763 -0.0001225132728 -0.08405584842 0.20788381994 -0.063937813044
          -0.1676364094 -0.20812961459 0.16890570521 -0.064909555018 0.03226750344 0.064789071679
          -0.084604918957 -0.1694483161 0.032046530396 0.1680098772 0.10420911014 0.06397099793
          -6.5835614805e-05 -0.084247350693 0.2084839195 -0.064112491906 -0.16812458634 -0.20861622691
          0.16929942369 -0.064918145537 0.032385826111 0.064926378429 -0.084698043764 -0.16964505613
          0.032204560935 0.16857258976 0.1045101434 0.064255572855 -4.5830947215e-07 -0.084404729307
          0.20902062953 -0.064264550805 -0.16855962574 -0.20902207494 0.16963002086 -0.064893737435
          0.032498955727 0.065044566989 -0.084753312171 -0.16977022588 0.032359436154 0.16908983886
          0.10478205234 0.064528606832 7.1905764344e-05 -0.084527559578 0.20949211717 -0.064390987158
          -0.16893537343 -0.20934869349 0.16990320385 -0.064843043685 0.032606557012 0.065147049725
          -0.084774650633 -0.16983382404 0.032508026809 0.16955161095 0.10502304137 0.064783170819
          0.00014954335347 -0.08461522311 0.20989648998 -0.064488433301 -0.16924504936 -0.20959767699
          0.17012530565 -0.064772970974 0.032708462328 0.065237656236 -0.08476600796 -0.1698462218
          0.032647226006 0.1699475944 0.10523144901 0.065012134612 0.00023083425185 -0.084666930139
          0.21023203433 -0.064553141594 -0.16948133707 -0.20977053046 0.17030322552 -0.064690589905
          0.032804843038 0.06532073766 -0.084731400013 -0.16981820762 0.032773971558 0.17026712
          0.10540579259 0.065208248794 0.00031434657285 -0.084681458771 0.21049721539 -0.064580842853
          -0.16963620484 -0.20986860991 0.17044463754 -0.064602412283 0.032895885408 0.065400645137
          -0.084674142301 -0.16975980997 0.032885745168 0.17050026357 0.10554488003 0.065364792943
          0.00039891907363 -0.084657751024 0.21069082618 -0.064567305148 -0.16970182955 -0.20989301801
          0.170557037 -0.064515627921 0.03298278898 0.065483249724 -0.084598228335 -0.16968256235
          0.03297976777 0.17063583434 0.10564789921 0.065474323928 0.00048376916675 -0.084593363106
          0.21081203222 -0.064506880939 -0.16966816783 -0.20984449983 0.17064996064 -0.060547363013
          0.030613811687 0.061170212924 -0.079003080726 -0.15827314556 0.030537581071 0.15898558497
          0.098191089928 0.060969959944 0.00027667061659 -0.078992269933 0.19618146122 -0.060480937362
          -0.1585392803 -0.19565944374 0.15884827077 0.030486637726 0.15843200684 0.060759902
          0.00028545813984 -0.078667223454 -0.060251124203 -0.15785780549 -0.060618441552 0.030577100813
          0.060913499445 -0.061391979456 0.030761128291 0.061495903879 -0.079586833715 -0.080333195627
          -0.15929576755 -0.16072529554 0.030678952113 0.16010287404 0.098819613457 0.030737567693
          0.16071152687 0.099383078516 0.061320122331 0.061405107379 0.00014544515579 5.09374986e-05
          -0.079740218818 -0.080298006535 0.19756643474 0.19870066643 -0.061001092196 -0.061307162046
          -0.15981787443 -0.16060979664 -0.19726605713 -0.19860306382 0.15958972275 0.16082693636
          -0.061985753477 0.030901400372 0.061919372529 -0.080984853208 -0.16207148135 0.030807090923
          0.16143169999 0.099928766489 0.061568271369 -3.5934303014e-05 -0.080831348896 0.19989708066
          -0.061642684042 -0.16149574518 -0.19996924698 0.16199108958 -0.062551319599 0.031049752608
          0.062347989529 -0.081590086222 -0.16330173612 0.030883993953 0.16210816801 0.10044708848
          0.061732884496 -0.00010625549476 -0.081321954727 0.20099896193 -0.061952177435 -0.16230799258
          -0.20121279359 0.16307623684 -0.063048824668 0.031193805858 0.062738023698 -0.082139164209
          -0.1644230932 0.030972708017 0.16279041767 0.10094763339 0.061918161809 -0.00016127798881
          -0.081781305373 0.20205666125 -0.062250003219 -0.16309596598 -0.20238034427 0.1640829891
          -0.06348708272 0.031336896122 0.063099816442 -0.082634314895 -0.16543237865 0.031073056161
          0.16346900165 0.10142909735 0.062121767551 -0.00020054260676 -0.082207337022 0.20305837691
          -0.062534175813 -0.16384978592 -0.20346063375 0.16501051188 -0.063863135874 0.031477987766
          0.063430249691 -0.08307415992 -0.166328758 0.031184963882 0.16414600611 0.10189106315
          0.062344331294 -0.00022403843468 -0.082599967718 0.20400594175 -0.06280515343 -0.16457153857
          -0.20445516706 0.16585765779 -0.064178027213 0.031617119908 0.063729949296 -0.083459228277
          -0.16711273789 0.031308174133 0.16482014954 0.10233333707 0.06258520484 -0.0002319921623
          -0.082959271967 0.204898417 -0.063062727451 -0.16526035964 -0.20536351204 0.16662453115
          -0.064432941377 0.031753972173 0.063999161124 -0.083790242672 -0.16778612137 0.031441848725
          0.16548921168 0.10275521874 0.062842816114 -0.0002248903038 -0.083285160363 0.20573508739
          -0.063306346536 -0.16591499746 -0.20618592203 0.16731189191 -0.06463021785 0.031888186932
          0.064238712192 -0.084068596363 -0.16835212708 0.031584739685 0.16614957154 0.10315579921
          0.063114650548 -0.00020350170962 -0.083577550948 0.20651488006 -0.063535064459 -0.16653324664
          -0.20692285895 0.16792139411 -0.064773105085 0.032019328326 0.064449861646 -0.084296248853
          -0.16881541908 0.031735122204 0.16679625213 0.10353391618 0.063397228718 -0.00016886059893
          -0.083836354315 0.20723649859 -0.063747547567 -0.16711212695 -0.20757509768 0.16845548153
          -0.06486582011 0.032146882266 0.064634270966 -0.084475755692 -0.16918204725 0.031890839338
          0.16742293537 0.10388815403 0.06368611753 -0.00012227536354 -0.084061428905 0.20789840817
          -0.063942030072 -0.16764782369 -0.20814372599 0.16891750693 -0.064913392067 0.032270301133
          0.064794078469 -0.084610141814 -0.16945932806 0.03204934299 0.16802214086 0.10421688855
          0.063976056874 -6.5254644142e-05 -0.084252595901 0.20849888027 -0.064116381109 -0.16813568771
          -0.20863004029 0.16931159794 -0.064921595156 0.032389048487 0.064931817353 -0.08470287919
          -0.16965569556 0.032207794487 0.16858530045 0.10451836139 0.064261056483 5.3681293366e-07
          -0.084409587085 0.20903606713 -0.064268037677 -0.16857033968 -0.20903551579 0.16964267194
          -0.06489674747 0.032502640039 0.065050475299 -0.084757715464 -0.16978046298 0.032363131642
          0.16910302639 0.10479074717 0.064534552395 7.3357790825e-05 -0.084531970322 0.20950804651
          -0.064394026995 -0.16894565523 -0.2093617171 0.16991634667 -0.064845584333 0.032610725611
          0.065153449774 -0.08477859199 -0.1698436141 0.032512202859 0.16956530511 0.10503223538
          0.06478960067 0.00015147475642 -0.084619171917 0.20991292596 -0.064490996301 -0.16925486922
          -0.20961025357 0.17013895512 -0.064775042236 0.032713122666 0.065244555473 -0.084769465029
          -0.16985554993 0.032651890069 0.16996178031 0.10524113476 0.06501904875 0.00023325099028
          -0.084670394659 0.21024897695 -0.064555220306 -0.1694906801 -0.20978264511 0.17031739652
          -0.06469219178 0.032809976488 0.065328113735 -0.084734395146 -0.16982707381 0.032779108733
          0.17028178275 0.10541595519 0.065215632319 0.00031723320717 -0.084684461355 0.21051464975
          -0.064582459629 -0.16964510083 -0.20988027751 0.17045928538 -0.064603574574 0.032901469618
          0.065408475697 -0.08467669785 -0.16976824403 0.032891325653 0.17051537335 0.10555548966
          0.065372623503 0.00040225277189 -0.084660306573 0.21070872247 -0.064568474889 -0.16971027851
          -0.20990423858 0.17057214677 -0.064516358078 0.032988805324 0.065491512418 -0.084600351751
          -0.16969057918 0.032985784113 0.17065137625 0.10565894842 0.065482586622 0.00048753657029
          -0.084595486522 0.21083036065 -0.064507611096 -0.16967618465 -0.20985528827 0.17066551745
          -0.060537513345 0.030625099316 0.061187177896 -0.079002596438 -0.15826749802 0.030550155789
          0.15900717676 0.09820894897 0.060984522104 0.00028653698973 -0.078988425434 0.19620499015
          -0.060475289822 -0.15853913128 -0.1956563592 0.15887287259 0.03049338609 0.15844209492
          0.060766518116 0.00029890896985 -0.078660383821 -0.060248278081 -0.15786191821 0.10296880454
          0.12749224901 0.10297422856 0.039332263172 0.049073111266 0.039334893227 0.0001809673704
          -0.038939420134 -0.048648696393 -0.10257854313 -0.10259915888 -0.127104491 -0.038938436657
          0.077270783484 0.09531018883 0.077269561589 0.029656160623 0.036855731159 0.029655197635
          0.00013234817015 -0.029397517443 -0.036606248468 -0.077010639012 -0.077005982399 -0.095049366355
          -0.029398348182 0.054558221251 0.067364446819 0.054558515549 0.020896172151 0.026029100642
          0.020896436647 6.7793007474e-05 -0.020757135004 -0.025889856741 -0.054422017187 -0.054423037916
          -0.067228980362 -0.020756784827 0.034410405904 0.042454879731 0.034410379827 0.013184313662
          0.016421087086 0.013184218667 2.9769786124e-05 -0.013123857789 -0.016362611204 -0.034351170063
          -0.034350898117 -0.042395863682 -0.013123935089 0.01634096168 0.020120814443 0.016341038048
          0.0062682153657 0.0078312363476 0.0062681972049 6.8627250585e-06 -0.0062524685636 -0.0078173689544
          -0.016327276826 -0.016327263787 -0.020107563585 -0.006252404768 0 0
          0 0 0 0 0 0
          0 0 0 0 0
        </DataArray>
        <DataArray type="Float32" Name="uy" format="ascii" RangeMin="-1.1842281818" RangeMax="1.1842719316">
          0.15547370911 0.14691716433 0.14055639505 -1.8358936359e-05 -0.15548481047 -0.14057974517
          -0.14693817496 0.15536344051 0.15209163725 0.096768662333 -1.0530093277e-05 -0.15211203694
          -0.15538179874 -0.096788860857 0.1520409137 0.097017072141 -0.15205419064 -0.097037911415
          0.13001634181 -1.0875271983e-05 -0.13003787398 0.13046990335 -0.13049036264 -0.13027334213
          -7.1178801591e-06 0.1302447319 -1.434555179e-05 -0.87998700142 -0.78548234701 -0.87999206781
          -0.83115720749 -0.73747336864 -0.83113688231 -0.74938517809 -0.70167982578 -0.80776327848
          -0.75970923901 -0.59653836489 -0.5742007494 -0.69099074602 -0.54974538088 -0.52778184414
          -0.64371222258 -0.50207710266 -0.45583221316 -0.69100242853 -0.64365625381 -0.63261055946
          -0.5856667161 -0.69095504284 -0.64388042688 -0.50207525492 -0.45583859086 -0.57419675589
          -0.52779620886 -0.69095718861 -0.64386773109 -0.80776333809 -0.75971448421 -0.92739284039
          -0.83218973875 -0.9273994565 -0.7957868576 -0.8544383049 -0.64206302166 -0.61943119764
          -0.73697686195 -0.54715317488 -0.73706674576 -0.67828124762 -0.73672086 -0.54714363813
          -0.61943006516 -0.73672646284 -0.8544370532 -0.96745938063 -0.8715916276 -0.96747338772
          -0.83490896225 -0.89383912086 -0.68034088612 -0.65744006634 -0.77571201324 -0.58497017622
          -0.7758654952 -0.71670919657 -0.77527850866 -0.58495509624 -0.65743780136 -0.77528858185
          -0.89383882284 -0.99512124062 -0.8986440897 -0.99513959885 -0.86170637608 -0.92090535164
          -0.70633637905 -0.683201015 -0.80214977264 -0.61052513123 -0.80235511065 -0.74285316467
          -0.80156975985 -0.61050510406 -0.68319869041 -0.80158317089 -0.92090523243 -1.0062762499
          -0.90924167633 -1.0062983036 -0.87207436562 -0.93153584003 -0.71594405174 -0.69260770082
          -0.81218677759 -0.61970317364 -0.81243181229 -0.75260937214 -0.81149566174 -0.61967951059
          -0.69260513783 -0.81151169538 -0.93153589964 -0.9977979064 -0.90025913715 -0.99782252312
          -0.86288768053 -0.92260462046 -0.70603793859 -0.68253523111 -0.80269753933 -0.60938054323
          -0.80296963453 -0.74285191298 -0.80193024874 -0.6093544364 -0.6825324893 -0.80194801092
          -0.92260479927 -0.96754997969 -0.86955988407 -0.96757596731 -0.83200973272 -0.8919750452
          -0.67448246479 -0.65084731579 -0.77154564857 -0.57742142677 -0.77183258533 -0.71144479513
          -0.77073693275 -0.57739394903 -0.65084457397 -0.77075570822 -0.89197540283 -0.91437506676
          -0.81598591805 -0.9144012928 -0.77828204632 -0.83848798275 -0.62011951208 -0.59638512135
          -0.71757233143 -0.52266889811 -0.71786218882 -0.65722954273 -0.71675550938 -0.52264124155
          -0.59638243914 -0.71677446365 -0.83848839998 -0.83805602789 -0.73931896687 -0.83808159828
          -0.70148563385 -0.76192343235 -0.5427314043 -0.51892906427 -0.64055818319 -0.44490671158
          -0.64083999395 -0.57998740673 -0.63976424932 -0.44487988949 -0.51892650127 -0.63978266716
          -0.76192384958 -0.73925071955 -0.64021515846 -0.73927462101 -0.60227531195 -0.66293478012
          -0.44297426939 -0.41913285851 -0.54115730524 -0.34479317069 -0.54142123461 -0.48037341237
          -0.54041391611 -0.34476807714 -0.41913050413 -0.54043120146 -0.66293525696 -0.61939758062
          -0.52011060715 -0.6194190979 -0.48208582401 -0.54295510054 -0.32228460908 -0.29842975736
          -0.42080354691 -0.22376734018 -0.42104133964 -0.35982230306 -0.42013403773 -0.22374477983
          -0.29842767119 -0.42014959455 -0.54295551777 -0.48059472442 -0.3811006546 -0.48061332107
          -0.34301051497 -0.40407556295 -0.18275786936 -0.15891131759 -0.28158921003 -0.083927929401
          -0.28179442883 -0.22042764723 -0.28101170063 -0.083908490837 -0.15890952945 -0.28102511168
          -0.40407598019 -0.32545301318 -0.22579284012 -0.32546824217 -0.18765483797 -0.24889925122
          -0.027001811191 -0.0031807830092 -0.12611837685 0.072113662958 -0.12628673017 -0.064794994891
          -0.12564499676 0.072129569948 -0.0031793145463 -0.12565599382 -0.24889959395 -0.1569262892
          -0.057137329131 -0.15693795681 -0.018966527656 -0.080371178687 0.14203323424 0.16581659019
          0.042662650347 0.24140305817 0.042533058673 0.10412782431 0.043026532978 0.24141524732
          0.16581772268 0.043018095195 -0.080371469259 0.021878188476 0.12176259607 0.021870007738
          0.15995378792 0.098410911858 0.32124388218 0.34498289227 0.22165486217 0.42083248496
          0.22156330943 0.28324010968 0.22191119194 0.42084100842 0.34498372674 0.22190526128
          0.098410688341 0.20790547132 0.30785632133 0.20790046453 0.34605821967 0.28440222144
          0.50757938623 0.53127324581 0.40781208873 0.60734653473 0.40775516629 0.46949395537
          0.40797051787 0.60735172033 0.53127372265 0.40796688199 0.28440207243 0.39837136865
          0.49836406112 0.39836898446 0.53657013178 0.47482928634 0.69825989008 0.72191393375
          0.5983594656 0.79816061258 0.59833067656 0.6601125598 0.59843790531 0.79816305637
          0.72191423178 0.59843605757 0.47482916713 0.59098905325 0.69100362062 0.5909883976
          0.72920972109 0.66741544008 0.89100313187 0.9146283865 0.79101896286 0.99098742008
          0.79100954533 0.8528162241 0.79104304314 0.99098807573 0.91462850571 0.7910425663
          0.66741544008 0.78420376778 0.88422495127 0.78420376778 0.92243093252 0.8606184721
          1.0842590332 1.1078740358 0.9842466116 1.1842719316 0.98424375057 1.046058774
          0.98425155878 1.1842719316 1.107874155 0.98425132036 0.86061829329 -0.60448390245
          -0.53806954622 -0.60448455811 -0.5127607584 -0.55402523279 -0.40429586172 -0.38904628158
          -0.47156447172 -0.33711594343 -0.47134765983 -0.43008852005 -0.47210291028 -0.33711221814
          -0.38905647397 -0.47213974595 -0.55404090881 -0.11242987216 -0.10857747495 -0.094771161675
          -0.12991642952 -0.11922267079 -0.094753041863 -0.10860271752 0.83116436005 0.73747378588
          0.83114373684 0.87998592854 0.78547483683 0.87999105453 0.70167720318 0.74937528372
          0.75971120596 0.80775719881 0.54973292351 0.52776771784 0.64370632172 0.59651780128
          0.57417869568 0.69097667933 0.45581331849 0.50204998255 0.64365029335 0.69098836184
          0.5856565237 0.63259249926 0.64387440681 0.69094109535 0.4558199048 0.5020480752
          0.52778220177 0.57417464256 0.64386117458 0.69094330072 0.75971645117 0.80775737762
          0.92738497257 0.83217531443 0.92739152908 0.79576992989 0.8544254899 0.64203548431
          0.61940211058 0.73695588112 0.54711902142 0.73704576492 0.67825621367 0.73669993877
          0.54710954428 0.61940103769 0.73670554161 0.8544241786 0.96744585037 0.87157154083
          0.96745985746 0.83488631248 0.89382058382 0.68030756712 0.65740519762 0.77568536997
          0.58493024111 0.77583879232 0.71667838097 0.77525186539 0.58491510153 0.65740299225
          0.77526193857 0.8938203454 0.99510341883 0.8986197114 0.99512183666 0.86167949438
          0.92088258266 0.70629870892 0.68316179514 0.80211871862 0.61048078537 0.80232405663
          0.74281799793 0.80153876543 0.61046075821 0.68315947056 0.80155217648 0.92088240385
          1.0062556267 0.90921449661 1.0062777996 0.8720446229 0.93151026964 0.71590346098
          0.69256561995 0.81215298176 0.61965590715 0.81239789724 0.75257140398 0.8114618659
          0.61963224411 0.69256299734 0.81147789955 0.93151032925 0.9977761507 0.90023070574
          0.99780076742 0.86285668612 0.92257779837 0.70599609613 0.68249177933 0.80266243219
          0.60933196545 0.8029345274 0.74281263351 0.80189520121 0.60930579901 0.68248909712
          0.80191296339 0.92257803679 0.96752864122 0.86953181028 0.96755462885 0.83197909594
          0.89194858074 0.67444086075 0.65080416203 0.77151089907 0.5773730278 0.77179777622
          0.71140581369 0.77070218325 0.57734560966 0.65080142021 0.77072095871 0.89194893837
          0.91435557604 0.815959692 0.91438186169 0.77825331688 0.83846342564 0.62007981539
          0.59634381533 0.71753942966 0.52262234688 0.71782922745 0.65719240904 0.71672260761
          0.52259469032 0.59634113312 0.71674156189 0.83846384287 0.83803999424 0.73929613829
          0.83806550503 0.70146024227 0.7619022131 0.54269498587 0.51889109612 0.64052861929
          0.44486349821 0.64081037045 0.5799536109 0.63973468542 0.44483664632 0.51888853312
          0.63975310326 0.76190268993 0.73923945427 0.64019709826 0.73926335573 0.60225474834
          0.66291844845 0.44294264913 0.41909965873 0.54113250971 0.34475469589 0.54139643908
          0.48034438491 0.54038912058 0.34472957253 0.41909727454 0.54040640593 0.66291886568
          0.61939245462 0.52009868622 0.61941403151 0.48207131028 0.54294484854 0.32225903869
          0.29840260744 0.42078483105 0.22373494506 0.42102262378 0.35979935527 0.42011538148
          0.2237123698 0.29840052128 0.42013090849 0.54294526577 0.48059689999 0.38109600544
          0.48061549664 0.34300327301 0.40407258272 0.18273954093 0.15889140964 0.28157773614
          0.08390275389 0.28178295493 0.22041195631 0.28100028634 0.083883307874 0.1588896215
          0.28101369739 0.40407297015 0.3254635036 0.22579647601 0.32547873259 0.18765586615
          0.24890454113 0.026991724968 0.0031691007316 0.1261151731 -0.07213062793 0.12628351152
          0.06478754431 0.12564182281 -0.07214653492 0.0031676285435 0.12565281987 0.24890488386
          0.15694591403 0.057150084525 0.15695758164 0.018976660445 0.080385580659 -0.14203424752
          -0.16581921279 -0.042656768113 -0.24141097069 -0.04252718389 -0.10412620008 -0.043020628393
          -0.24142315984 -0.16582034528 -0.04301219061 0.080385863781 -0.02184878476 -0.12174008787
          -0.021840605885 -0.15993389487 -0.098386757076 -0.3212351799 -0.34497579932 -0.22163924575
          -0.42083066702 -0.22154769301 -0.283228755 -0.22189554572 -0.42083922029 -0.34497663379
          -0.22188961506 -0.098386541009 -0.20786583424 -0.30782359838 -0.20786084235 -0.34602814913
          -0.28436785936 -0.50756049156 -0.53125596046 -0.40778625011 -0.6073345542 -0.40772935748
          -0.46947240829 -0.40794470906 -0.6073397398 -0.5312564373 -0.40794104338 -0.28436771035
          -0.39832121134 -0.49832084775 -0.39831885695 -0.53652954102 -0.47478443384 -0.69823050499
          -0.72188615799 -0.59832316637 -0.79813814163 -0.59829437733 -0.6600805521 -0.59840154648
          -0.79814058542 -0.72188645601 -0.59839975834 -0.47478431463 -0.59092825651 -0.69094973803
          -0.59092760086 -0.7291585207 -0.66735994816 -0.89096307755 -0.91459000111 -0.7909719944
          -0.9909542799 -0.79096257687 -0.85277354717 -0.79099607468 -0.99095493555 -0.91459006071
          -0.79099559784 -0.66735988855 -0.78413230181 -0.88416039944 -0.78413230181 -0.9223690033
          -0.86055225134 -1.08420825 -1.1078249216 -0.9841889739 -1.1842281818 -0.98418611288
          -1.0460053682 -0.98419392109 -1.1842280626 -1.1078250408 -0.98419362307 -0.86055207253
          0.6044896841 0.53807038069 0.60449177027 0.51276093721 0.55402696133 0.40428325534
          0.38903212547 0.47155788541 0.33709660172 0.47134178877 0.43008035421 0.47209662199
          0.33709317446 0.38904422522 0.47213682532 0.55404305458 0.11240249127 0.10855241865
          0.094740837812 0.12989263237 0.11919227242 0.094719469547 0.10856883228 -0.074956290424
          -6.7961018431e-06 0.074942454696 0.12110147625 -6.7968476287e-06 -0.12111543119 -5.6455924096e-06
          0.12107173353 -4.4326229727e-06 0.074880242348 -0.074893333018 -7.5087705227e-06 -0.12108702213
          -0.055949468166 -4.7992630243e-06 0.055939979851 0.090650863945 -4.7613216339e-06 -0.090660400689
          -5.0734270189e-06 0.090658694506 -5.4236570577e-06 0.055955972522 -0.055965770036 -4.6427803682e-06
          -0.090668141842 -0.039559494704 -2.8953479614e-06 0.039553690702 0.064042404294 -2.8976496651e-06
          -0.064048163593 -2.811393415e-06 0.064041562378 -2.7145385957e-06 0.039551496506 -0.039557181299
          -2.9288880796e-06 -0.064047269523 -0.024941148236 -1.3267380155e-06 0.024938529357 0.040408551693
          -1.3007589814e-06 -0.040411133319 -1.3172746094e-06 0.040409557521 -1.3485964701e-06 0.024940427393
          -0.024943079799 -1.3201517959e-06 -0.04041216895 -0.011828364804 -3.7567090772e-07 0.011827646755
          0.019196551293 -3.4270877336e-07 -0.019197203219 -3.3245561326e-07 0.019197367132 -3.3283376411e-07
          0.011828932911 -0.011829648167 -3.8036600358e-07 -0.019198009744 0 0
          0 0 0 0 0 0
          0 0 0 0 0
        </DataArray>
        <DataArray type="Float32" Name="uz" format="ascii" RangeMin="-0.10884527862" RangeMax="0.10885030031">
          0.00074140523793 -0.00067181960912 0.0020201059524 -6.4904111241e-06 -0.00074157735799 -0.0020285847131
          0.00066696340218 -0.00070404226426 -0.0047492631711 -0.00091244099895 -3.1272545584e-06 0.0047512478195
          0.00070335780038 0.00090691045625 0.004766441416 0.0011352041038 -0.0047740046866 -0.001150011085
          -0.0028704043943 -3.4640345348e-06 0.0028700958937 -0.0055954926647 0.0055952905677 -0.0056464686058
          -9.2403697636e-06 0.0056338058785 -3.9768201532e-06 -0.0078639714047 0.0041865981184 0.0082925427705
          -0.007525825873 0.0040333033539 0.0079464027658 -0.010310349986 -0.0098980972543 -0.020983533934
          -0.020062441006 0.0041461042129 0.021284550428 0.013119550422 0.0039179222658 0.020159108564
          0.012571884319 0.00820896402 0.0077135441825 0.0001584735146 0.00015652185539 -0.010353607126
          -0.0098325321451 0.026323964819 0.025167858228 -0.0079789264128 -0.0074993208982 -0.021057697013
          -0.019957194105 -0.025970257819 -0.024816202 0.021325163543 0.02043921873 -0.007136377506
          0.0038214803208 0.0075443754904 -0.0093657551333 -0.019044328481 0.0037798017729 0.019338939339
          0.011946635321 0.0074631115422 0.00015807797899 -0.009390456602 0.023928813636 -0.0072185527533
          -0.019099289551 -0.02358080633 0.019386485219 -0.0054501909763 0.0029747083317 0.0058415099047
          -0.007160787005 -0.014613589272 0.0029418647755 0.01490749605 0.009218333289 0.0057749296539
          0.00015868611808 -0.007181066554 0.018442224711 -0.005515483208 -0.014652241021 -0.018098233268
          0.014949967153 -0.0029685006011 0.0017306582304 0.0033423041459 -0.0039157811552 -0.0080949114636
          0.0017059154343 0.0083962855861 0.0052050654776 0.0032930718735 0.00015895062825 -0.0039310036227
          0.010380336083 -0.0030179792084 -0.0081259068102 -0.010041493922 0.0084264026955 0.00014115968952
          0.00017254261184 0.00021486621699 0.00015103336773 6.6647990025e-05 0.00015618748148 0.00023950870673
          0.00017573380319 0.00018209549307 0.00015927954519 0.00014087316231 0.0002862837573 0.00010838542221
          4.6464909246e-05 4.7539549996e-05 0.00025980814826 0.0037081069313 -0.0016142006498 -0.00336978212
          0.0048165083863 0.0094258189201 -0.0016223451821 -0.0091144200414 -0.0055936332792 -0.0033860318363
          0.00015956415155 0.0048114955425 -0.011287962086 0.0036918688565 0.0094157783315 0.011616635136
          -0.0091043757275 0.007561778184 -0.0035442633089 -0.0072407913394 0.0098573826253 0.019535047933
          -0.0035443266388 -0.019218608737 -0.01182697434 -0.0072408793494 0.00015983235789 0.0098573388532
          -0.023789219558 0.0075616766699 0.019534993917 0.024112861603 -0.019218545407 0.011535783298
          -0.005534440279 -0.01123142615 0.01505609788 0.029958484694 -0.0055267694406 -0.029637301341
          -0.018255352974 -0.011216023006 0.00016007586964 0.015060841106 -0.036678671837 0.011551175267
          0.029968008399 0.036997534335 -0.029646810144 0.015472861938 -0.0075060753152 -0.01518407464
          0.020206967369 0.040283940732 -0.007491143886 -0.039958424866 -0.024624450132 -0.015154133551
          0.00016030026018 0.020216196775 -0.049446687102 0.015502786264 0.040302447975 0.049761198461
          -0.039976913482 0.019229602069 -0.0093874521554 -0.018954997882 0.025122465566 0.050135560334
          -0.0093658762053 -0.049806252122 -0.030702419579 -0.01891175285 0.00016050512204 0.025135802105
          -0.061628583819 0.019272824749 0.050162289292 0.061939325184 -0.049832962453 0.022681262344