<VTKFile type="UnstructuredGrid" version="1.0" byte_order="LittleEndian" header_type="UInt64">
  <UnstructuredGrid>
    <Piece NumberOfPoints="791" NumberOfCells="973">
      <PointData>
        <DataArray type="Float32" Name="ux" format="ascii" RangeMin="-0.46895599365" RangeMax="0.45767912269">
          -0.0040647080168 -0.059957772493 0.038270108402 0.0036887952592 -0.0082388119772 0.039247293025
          -0.062420114875 -0.098133780062 -0.18380969763 -0.1734406352 -0.11412464082 -0.19800373912
          -0.10206536204 -0.17537553608 0.10371509194 0.071539178491 0.10578030348 0.070378892124
          -0.094743408263 -0.19660997391 -0.10020197183 -0.1737614572 -0.18833728135 0.15383271873
          0.10217104852 0.14272248745 -0.055967155844 0.29571443796 0.22060246766 0.19423617423
          0.20949687064 0.12364498526 0.095364548266 0.31018674374 0.22513261437 0.37726023793
          0.30122244358 0.22135788202 0.12277581543 0.16797703505 0.12395045906 0.0070867044851
          0.061725158244 0.19748072326 0.096035338938 0.24512043595 0.1518176496 0.30759122968
          0.22359420359 0.09165713191 -0.029029263183 0.28957077861 0.20360998809 0.36738684773
          0.29393696785 0.40317797661 0.33187302947 0.11729352176 0.0045972461812 0.36756381392
          0.30543163419 0.2840334475 0.37867721915 0.43509486318 0.30476173759 0.22658416629
          0.26280397177 0.28449887037 0.32511255145 0.37548798323 0.20266857743 0.35912173986
          0.42483454943 0.45639142394 0.22307792306 0.38752886653 0.34159561992 0.3248257339
          0.39795315266 0.43964323401 0.34086495638 0.28032946587 0.30998823047 0.32501983643
          0.35706347227 0.39469632506 0.26358363032 0.38047653437 0.43211567402 0.45767912269
          0.27811306715 0.32600149512 0.29978188872 0.28887325525 0.33275365829 0.35744556785
          0.29806351662 0.26667955518 0.28174176812 0.28809863329 0.3084089756 0.32997328043
          0.25710946321 0.31899097562 0.35102012753 0.36694675684 0.26391038299 0.19052046537
          0.1886806488 0.18671500683 0.19089093804 0.19320258498 0.18684445322 0.18904949725
          0.18807898462 0.18564063311 0.18836942315 0.18844538927 0.18932211399 0.18470788002
          0.18799801171 0.19165237248 0.18600940704 -0.010270967148 0.011471122503 0.019221926108
          -0.015544537455 -0.03415818885 0.010572659783 0.042779296637 0.027879012749 0.017644209787
          0.0032208776101 -0.016608396545 0.051764316857 -0.013371761888 -0.03681120649 -0.045032400638
          0.043297503144 -0.19158306718 -0.15812270343 -0.14513210952 -0.20028713346 -0.23077277839
          -0.1587638706 -0.11329686642 -0.13430371881 -0.14657136798 -0.16997618973 -0.19988051057
          -0.10034873337 -0.19143564999 -0.22961492836 -0.24480624497 -0.11128602177 -0.32762527466
          -0.29007604718 -0.27502653003 -0.3373837769 -0.37160223722 -0.29100084305 -0.24041102827
          -0.26361748576 -0.27844637632 -0.30398440361 -0.33673995733 -0.22377344966 -0.32651314139
          -0.36878839135 -0.38751724362 -0.23545096815 -0.39778396487 -0.36237305403 -0.34585493803
          -0.40873989463 -0.44124335051 -0.36659768224 -0.31724584103 -0.33781337738 -0.35476517677
          -0.37799969316 -0.40950492024 -0.29980418086 -0.40166410804 -0.44102948904 -0.45730024576
          -0.30934250355 -0.42090854049 -0.39174112678 -0.37818107009 -0.42908856273 -0.45671871305
          -0.39662465453 -0.36008995771 -0.37366625667 -0.38922142982 -0.40398293734 -0.42967382073
          -0.34515681863 -0.422765553 -0.45332384109 -0.46895599365 -0.34969162941 -0.38972714543
          -0.37432074547 -0.36434188485 -0.39512085915 -0.41063353419 -0.37888094783 -0.3630990386
          -0.36694735289 -0.37590655684 -0.38145887852 -0.39399707317 -0.35194832087 -0.38852933049
          -0.40339156985 -0.4146490097 -0.350451231 -0.28637608886 -0.28579112887 -0.28032153845
          -0.28919905424 -0.29200366139 -0.29324230552 -0.29928731918 -0.29121810198 -0.29756745696
          -0.29023367167 -0.28968131542 -0.29406747222 -0.28945797682 -0.28533741832 -0.28915154934
          -0.28350391984 -0.13546821475 -0.14549273252 -0.14665225148 -0.13255600631 -0.12428294122
          -0.14834448695 -0.17073607445 -0.15676306188 -0.15404239297 -0.14279910922 -0.13081805408
          -0.17179007828 -0.13172984123 -0.11680692434 -0.1160074845 -0.16027748585 0.027227740735
          0.019106635824 0.016225971282 0.030390530825 0.037018693984 0.017571425065 0.00090126885334
          0.010756648146 0.011087829247 0.021568320692 0.031131645665 0.00034805748146 0.027786143124
          0.04082781449 0.043838929385 0.0072177802213 0.16545519233 0.17289605737 0.17576567829
          0.16545596719 0.1613304615 0.16960184276 0.17892494798 0.17732331157 0.16790366173
          0.17021290958 0.16350968182 0.1843791306 0.16033735871 0.15903736651 0.16019143164
          0.18346120417 0.2412596792 0.25732800364 0.25917136669 0.24189019203 0.23159022629
          0.25474798679 0.27375069261 0.26734375954 0.25451755524 0.25249606371 0.24212965369
          0.28424936533 0.23980113864 0.23368832469 0.23002946377 0.27802118659 0.21979686618
          0.23631086946 0.23866939545 0.22110496461 0.20905065536 0.23677222431 0.25661933422
          0.24819013476 0.23835688829 0.23308119178 0.22093628347 0.2643969357 0.22036495805
          0.20968596637 0.2062946856 0.25733074546 0.11685156822 0.12672485411 0.12844887376
          0.11498206109 0.10707113147 0.1253823638 0.13956205547 0.13369970024 0.12743277848
          0.12422230095 0.11431150883 0.1438882947 0.1135192737 0.10470378399 0.10345438868
          0.13934335113 -0.027974409983 -0.017074216157 -0.014354835264 -0.029673937708 -0.038504097611
          -0.019317351282 -0.0047446177341 -0.011000554077 -0.017037473619 -0.021733921021 -0.030983565375
          -0.00053562276298 -0.029667466879 -0.03957882151 -0.042334482074 -0.0041050743312 0.061834923923
          -0.0012759944657 -0.050159730017 0.10605981946 0.16761355102 0.035398323089 -0.076440341771
          -0.043990455568 0.026606203988 0.045248180628 0.12875978649 -0.13325768709 0.13532756269
          0.21082493663 0.22408348322 -0.12280488014 -0.017214134336 -0.12324240059 -0.017674662173
          -0.015193181112 0.067519798875 0.087680712342 0.15377944708 0.06628549844 0.03931876272
          0.032026469707 0.014943010174 0.0018823350547 -0.004445457831 0.072527393699 0.021270735189
          0.096142604947 0.034750834107 0.037544995546 -0.0049935975112 0.018356459215 0.0020408357959
          -0.023408599198 -0.01009714324 0.024200454354 -0.005528088659 0.048458352685 0.0078477757052
          0.073393546045 0.022913618013 -0.011186332442 -0.027801228687 0.064915142953 0.019130837172
          0.098259955645 0.038888178766 0.10945238918 0.044643960893 0.0030143945478 -0.020136555657
          -0.058454554528 -0.062928512692 -0.065587356687 -0.055367257446 -0.051238652319 -0.06313598156
          -0.073931008577 -0.068378262222 -0.066129587591 -0.060379713774 -0.053964819759 -0.076372481883
          -0.055019907653 -0.047323111445 -0.046337615699 -0.072818793356 -0.1495719403 -0.13939759135
          -0.13732674718 -0.14809681475 -0.15765619278 -0.138089329 -0.13160516322 -0.13482144475
          -0.13621245325 -0.14046578109 -0.14462578297 -0.12784530222 -0.14061683416 -0.14789840579
          -0.15634092689 -0.1293887943 -0.23017516732 -0.2098454386 -0.20213849843 -0.23415465653
          -0.2524663806 -0.20758520067 -0.17929050326 -0.19343683124 -0.19889782369 -0.21510277689
          -0.23218898475 -0.17157706618 -0.22515635192 -0.24901969731 -0.25876650214 -0.17934057117
          -0.2822906971 -0.24560545385 -0.23239214718 -0.29189819098 -0.32435151935 -0.24446666241
          -0.19080147147 -0.21738635004 -0.23022180796 -0.25816902518 -0.29226371646 -0.17844872177
          -0.28240761161 -0.32562336326 -0.34079140425 -0.19417022169 -0.30490851402 -0.2547108531
          -0.23722420633 -0.31730097532 -0.361723423 -0.25206488371 -0.17843104899 -0.21527825296
          -0.23187437654 -0.27133706212 -0.31673651934 -0.16087445617 -0.30406999588 -0.364166677
          -0.3859359026 -0.18287353218 -0.25941872597 -0.19885225594 -0.1775957495 -0.27503097057
          -0.32963350415 -0.19625653327 -0.10305143148 -0.14944401383 -0.17174045742 -0.21966329217
          -0.27612930536 -0.080666728318 -0.26186564565 -0.33550408483 -0.36038514972 -0.10984224826
          -0.16366687417 -0.095668129623 -0.074467130005 -0.17789810896 -0.23630289733 -0.094610139728
          0.0075021861121 -0.042646311224 -0.069830439985 -0.11836921424 -0.18052583933 0.033206902444
          -0.16796921194 -0.24360951781 -0.26849257946 0.00013601922547 -0.10044956207 -0.022844433784
          -3.4549462725e-05 -0.11390263587 -0.17989772558 -0.022309152409 0.088033564389 0.035554423928
          0.0026273485273 -0.047384861857 -0.11508899182 0.1189294681 -0.10091295093 -0.18222282827
          -0.21083430946 0.08403968066 -0.10897029191 -0.015789575875 0.013735097833 -0.12598071992
          -0.20546205342 -0.01486255601 0.1159812659 0.053699102253 0.015067779459 -0.045944146812
          -0.12479349971 0.15458935499 -0.10546251386 -0.20158410072 -0.24001859128 0.11616017669
          -0.13812752068 -0.026741065085 0.011026043445 -0.15948724747 -0.25842785835 -0.025973705575
          0.12738551199 0.054929442704 0.011044689454 -0.062347374856 -0.15783268213 0.17329612374
          -0.132408306 -0.25129109621 -0.30056405067 0.13052384555 -0.14198994637 -0.026509648189
          0.012264898047 -0.16423159838 -0.26613935828 -0.027328629047 0.12571807206 0.054737973958
          0.0076966797933 -0.064813159406 -0.16243481636 0.17333315313 -0.13721558452 -0.25814524293
          -0.31056168675 0.1326045692 -0.10588060319 -0.0052584642544 0.028020758182 -0.12609997392
          -0.21501837671 -0.0055265258998 0.13102510571 0.067346908152 0.026670809835 -0.038430530578
          -0.12389874458 0.17328235507 -0.10079630464 -0.20816729963 -0.25237703323 0.13576427102
          -0.064871102571 0.029956350103 0.061681997031 -0.082571648061 -0.16610129178 0.029050862417
          0.15691056848 0.098358526826 0.058847352862 -0.0013274453813 -0.081868544221 0.1967086643
          -0.062467638403 -0.16211433709 -0.20240779221 0.1607594341 -0.028294013813 0.064082287252
          0.093491472304 -0.045713126659 -0.1255594641 0.065300136805 0.19479684532 0.13343472779
          0.095454663038 0.034400429577 -0.044588945806 0.23280516267 -0.026227297261 -0.12452165037
          -0.16277197003 0.19397573173 -0.0079550566152 0.089603886008 0.12043663859 -0.026135962456
          -0.11071830988 0.092412032187 0.22863772511 0.16302581131 0.12547838688 0.05907413736
          -0.024384779856 0.26700726151 -0.0025619447697 -0.10769427568 -0.14799284935 0.22604577243
          0.0077920132317 0.10536058247 0.13743931055 -0.012410508469 -0.097782723606 0.10638736188
          0.2454931289 0.17911319435 0.14053167403 0.074141144753 -0.011276097968 0.28439381719
          0.010190994479 -0.096032239497 -0.13741795719 0.24344146252 0.028958827257 0.12693546712
          0.15966764092 0.0093427244574 -0.075930304825 0.12857609987 0.26722475886 0.20118367672
          0.16254113615 0.095300704241 0.010949896649 0.30689358711 0.03237824142 -0.074034631252
          -0.11532530189 0.26554337144 0.063763387501 0.16065081954 0.19331254065 0.043409273028
          -0.041527491063 0.16060499847 0.29847285151 0.23300354183 0.19371759892 0.12858045101
          0.042829055339 0.33785250783 0.06387963891 -0.041110351682 -0.080658212304 0.29744562507
          0.045301701874 9.1021560365e-05 -0.027233507484 0.068896569312 0.1122687161 0.016605030745
          -0.056726954877 -0.030626568943 0.0043288073502 0.026373339817 0.077730067074 -0.087026081979
          0.073889039457 0.12760464847 0.143250525 -0.076562561095 -0.018591921777 -0.11478042603
          -0.020980985835 -0.014544111677 0.061038799584 0.07323691994 0.13433025777 -0.19068878889
          -0.23138213158 -0.19668015838 -0.097921051085 -0.11240445077 -0.09306909889 -0.039105646312
          0.021785601974 0.032545398921 0.11241550744 0.10720527172 0.14229215682 0.021194791421
          -0.10857201368 -0.14344827831 -0.11111167073 -0.016427462921 -0.032224468887 -0.020374130458
          0.038902983069 0.10111560673 0.10998046398 0.19268497825 0.18355512619 0.22229383886
          0.091336652637 -0.013098825701 -0.044320479035 -0.013665874489 0.068177878857 0.056374415755
          0.064299628139 0.11982823163 0.17119704187 0.18208689988 0.25406011939 0.24574275315
          0.28090295196 0.16316486895 0.032473172992 0.0076328394935 0.032184783369 0.098587721586
          0.089557185769 0.09346370399 0.14073115587 0.18294426799 0.19064201415 0.24882334471
          0.23979867995 0.2698366046 0.17189474404 0.0015493434621 -0.010046456009 0.011535787024
          0.054022740573 0.041200261563 0.044766243547 0.073818460107 0.10162840784 0.10440468043
          0.13534925878 0.13785204291 0.15054239333 0.098440289497 1.8451744299e-10 -2.306375535e-09
          1.0428208991e-10 4.1057084815e-11 1.4507557482e-11 -4.6410909837e-11 1.653700267e-11 -1.115122602e-13
          1.2377154423e-13 0 0 0 1.7218779842e-13
        </DataArray>
        <DataArray type="Float32" Name="uy" format="ascii" RangeMin="-1.0787448883" RangeMax="1.5564389229">
          -0.15129026771 -0.087549902499 -0.058395966887 -0.014390163124 0.14155112207 0.19098646939
          0.18150466681 -0.15288449824 -0.10246877372 -0.086431525648 -0.013311221264 0.17942433059
          0.14408276975 0.097267620265 -0.099618785083 -0.085500538349 0.16954483092 0.093150384724
          -0.018886812031 0.031002294272 0.21354600787 -0.018447291106 0.21501706541 0.2094925642
          0.029329806566 -0.011953340843 -0.020456159487 1.0859661102 1.0107101202 1.0852613449
          1.0488259792 0.96058362722 1.0495462418 0.98015928268 0.92454439402 1.0252485275
          0.97758489847 0.86341106892 0.84648084641 0.93659162521 0.78664380312 0.76602452993
          0.87336492538 0.79223680496 0.70129984617 0.93614345789 0.87270832062 0.88860160112
          0.81643927097 0.93509399891 0.87209951878 0.78958892822 0.69970983267 0.83922570944
          0.76099807024 0.92910498381 0.86616450548 1.0259037018 0.98120391369 1.0306626558
          0.96775370836 1.0285813808 0.94357645512 0.97965174913 0.84866952896 0.83753710985
          0.90839159489 0.79186457396 0.90714222193 0.86722636223 0.90771663189 0.78618323803
          0.82572674751 0.89975011349 0.97996455431 0.88674217463 0.83961725235 0.88526159525
          0.81978040934 0.8495823741 0.74757820368 0.74046170712 0.79450666904 0.70448291302
          0.79212462902 0.76043379307 0.7945830822 0.69794338942 0.7270668745 0.78552806377
          0.8480899334 0.68252259493 0.65345263481 0.67943876982 0.64419096708 0.66141074896
          0.60315537453 0.59753274918 0.62713605165 0.57929635048 0.62818837166 0.61022382975
          0.62500846386 0.57382369041 0.59015142918 0.62402135134 0.6558611989 0.39834690094
          0.39530369639 0.39571434259 0.39653941989 0.39625573158 0.3960750103 0.39543682337
          0.3939371407 0.39758601785 0.39544814825 0.39555481076 0.39078807831 0.39481303096
          0.39244005084 0.39362001419 0.39142113924 0.049232903868 0.07323256135 0.050068505108
          0.081065416336 0.065855003893 0.11914600432 0.12408441305 0.096163652837 0.14217323065
          0.096097774804 0.10977550596 0.096070595086 0.14161832631 0.1231513992 0.093742080033
          0.067513726652 -0.30279234052 -0.26581498981 -0.29915955663 -0.25353509188 -0.276537925
          -0.1990839541 -0.19163379073 -0.23081405461 -0.16573411226 -0.23202750087 -0.21102026105
          -0.23045633733 -0.16397704184 -0.18847079575 -0.2320997417 -0.27064868808 -0.62321323156
          -0.58127766848 -0.61934685707 -0.56816726923 -0.59334677458 -0.50400876999 -0.49359998107
          -0.5410605669 -0.4665312171 -0.54302787781 -0.51894772053 -0.53812736273 -0.46504420042
          -0.4932076335 -0.54262727499 -0.58636850119 -0.87355208397 -0.83386045694 -0.8704329133
          -0.82000494003 -0.84268933535 -0.76027405262 -0.74936050177 -0.79594922066 -0.72372841835
          -0.79683971405 -0.77285122871 -0.79185068607 -0.72210246325 -0.74846464396 -0.7934704423
          -0.83815360069 -1.0275981426 -0.99262493849 -1.0218430758 -0.98306012154 -1.004034996
          -0.93270784616 -0.92262750864 -0.9597107172 -0.90444898605 -0.96287101507 -0.94395428896
          -0.9551910758 -0.90313196182 -0.92189389467 -0.96132040024 -0.99259090424 -1.0787448883
          -1.0579298735 -1.0741745234 -1.0537434816 -1.0643475056 -1.0283045769 -1.0212339163
          -1.039770484 -1.016112566 -1.0429656506 -1.0332068205 -1.0345987082 -1.0156605244
          -1.0222914219 -1.0405170918 -1.0538313389 -1.0070706606 -1.0028409958 -1.0031121969
          -1.0035848618 -1.0020993948 -1.0088287592 -1.0067610741 -1.0034469366 -1.0144058466
          -1.0045249462 -1.0054192543 -0.99714165926 -1.0126591921 -1.0042667389 -0.99903720617
          -0.99647462368 -0.7966144681 -0.80620539188 -0.7940633297 -0.81178641319 -0.80331641436
          -0.83457523584 -0.8345245719 -0.81756556034 -0.8506976366 -0.82008427382 -0.82849925756
          -0.81252342463 -0.85025423765 -0.83573508263 -0.81737667322 -0.79768830538 -0.50225192308
          -0.51000601053 -0.50198239088 -0.5141941309 -0.50776231289 -0.52928316593 -0.52847903967
          -0.51820939779 -0.5403689146 -0.51895660162 -0.52614331245 -0.51393634081 -0.54217499495
          -0.53221988678 -0.51848208904 -0.50516712666 -0.1706006676 -0.16703006625 -0.17183560133
          -0.16374441981 -0.16530638933 -0.1562166512 -0.15012738109 -0.1607042551 -0.14821922779
          -0.16194461286 -0.15996104479 -0.15829177201 -0.1525709331 -0.15834833682 -0.16082718968
          -0.16641828418 0.21123400331 0.2226165235 0.20651301742 0.22970914841 0.22417624295
          0.24949429929 0.25696611404 0.23659831285 0.26274338365 0.23573471606 0.24292694032
          0.23845233023 0.25798499584 0.24790681899 0.23771904409 0.21680302918 0.64492702484
          0.65660965443 0.64082211256 0.66293603182 0.65678620338 0.68507796526 0.691424191
          0.67193090916 0.69981890917 0.6712474227 0.67775446177 0.67205947638 0.69577175379
          0.68395847082 0.6703787446 0.65154200792 1.0940899849 1.1025460958 1.093747735
          1.1061979532 1.1000828743 1.121573925 1.1242568493 1.1114064455 1.132776618
          1.111266017 1.1173636913 1.1111251116 1.1306337118 1.1222863197 1.1112302542
          1.1001409292 1.5195839405 1.5286489725 1.518789649 1.532599926 1.5273034573
          1.5468760729 1.5487242937 1.5374088287 1.5564285517 1.537830472 1.5442935228
          1.5365380049 1.5564389229 1.5492610931 1.538141489 1.5261907578 0.69918215275
          0.65868830681 0.70256751776 0.63934034109 0.66380339861 0.57517212629 0.56703233719
          0.61845713854 0.53339505196 0.6157578826 0.58758962154 0.61950266361 0.53037625551
          0.55887657404 0.60968321562 0.67076349258 0.241388008 0.24937552214 0.27114754915
          0.2115996629 0.22940514982 0.27105075121 0.24955917895 -0.12203409523 -0.096321225166
          -0.12091454864 -0.049599718302 -0.031151315197 -0.048083756119 -0.085545197129 -0.024686520919
          -0.10304537416 -0.037640288472 -0.03984478116 -0.036829017103 -0.070615641773 0.0044390605763
          0.0060580889694 -0.014229252003 -0.009809134528 0.021942626685 -0.068615704775 -0.013002502732
          -0.04970613867 -0.0014841578668 -0.072495557368 -0.01528507378 -0.0063561643474 0.023377779871
          -0.029159123078 0.010254685767 -0.068271905184 -0.013613769785 -0.10275486112 -0.035689152777
          -0.0077268206514 -0.00064813374775 -0.0063495659269 -0.00083117338363 -0.0058095916174 0.012572599575
          0.014295431785 0.0060963938013 0.01983050257 0.0049575068988 0.0068273041397 0.0058605275117
          0.018262417987 0.010224354453 -2.0983019567e-05 -0.0014875814086 0.0096583347768 0.00062099203933
          0.010217384435 -0.0039948169142 -1.9312608856e-05 -0.014082710259 -0.012860191055 -0.0069178398699
          -0.017057202756 -0.0081258360296 -0.01496253442 -0.0058087031357 -0.021054819226 -0.020885907114
          -0.012547044083 0.0027028713375 -0.025194931775 -0.046524308622 -0.02465101704 -0.055082164705
          -0.042698010802 -0.087927252054 -0.091173127294 -0.06703158468 -0.10767947882 -0.067568905652
          -0.081574261189 -0.067815251648 -0.1097984165 -0.095907151699 -0.070060610771 -0.042067352682
          -0.077822983265 -0.11610784382 -0.079518333077 -0.13061325252 -0.10711878538 -0.19014410675
          -0.1962570101 -0.15073862672 -0.22855810821 -0.15325005352 -0.17716471851 -0.15075172484
          -0.23077364266 -0.20169886947 -0.15403945744 -0.1063733995 -0.10722017288 -0.16163447499
          -0.10934824497 -0.17994894087 -0.14493025839 -0.26687735319 -0.27552688122 -0.2139351517
          -0.31957894564 -0.21376049519 -0.24705426395 -0.2118858546 -0.32288888097 -0.28091397882
          -0.21150332689 -0.14896710217 -0.087643496692 -0.15281540155 -0.089707009494 -0.17636242509
          -0.13381624222 -0.28616908193 -0.29934003949 -0.21826595068 -0.35480728745 -0.21804307401
          -0.26018983126 -0.21434244514 -0.35698369145 -0.30211228132 -0.21477788687 -0.13576503098
          -0.015814049169 -0.084378406405 -0.014358417131 -0.11164757609 -0.067950822413 -0.22760419548
          -0.24268083274 -0.15421807766 -0.30174508691 -0.15515354276 -0.19978423417 -0.15095439553
          -0.30104863644 -0.24338817596 -0.1536552608 -0.064534001052 0.14404319227 0.06907223165
          0.14687725902 0.03828298673 0.0850090608 -0.086839511991 -0.10631949455 -0.0079657053575
          -0.16722795367 -0.0088634835556 -0.056790009141 -0.0057041635737 -0.16516488791 -0.10271193087
          -0.0081040076911 0.090517319739 0.36621236801 0.27430284023 0.36929690838 0.23572662473
          0.29128161073 0.086997695267 0.062764145434 0.18016707897 -0.0074282339774 0.17970313132
          0.12156852335 0.17994941771 -0.0058897240087 0.065253414214 0.17631159723 0.29787755013
          0.56447434425 0.45148202777 0.5643491745 0.40627044439 0.47523459792 0.22495156527
          0.19714063406 0.33682313561 0.11352816969 0.33708459139 0.26617029309 0.33453160524
          0.11173553765 0.19364209473 0.33176127076 0.4750110209 0.65108269453 0.53276127577
          0.64873999357 0.48806479573 0.559245646 0.30338597298 0.27634340525 0.41636326909
          0.19150598347 0.41782408953 0.34455257654 0.41367837787 0.18823121488 0.26968163252
          0.41198536754 0.55581825972 0.59122443199 0.4894593358 0.5909100771 0.45121121407
          0.51151394844 0.28826445341 0.26170575619 0.38798984885 0.18749837577 0.38870298862
          0.32599404454 0.38415592909 0.18691498041 0.26072326303 0.38411042094 0.51039111614
          0.45429873466 0.35937073827 0.45457103848 0.3217228651 0.37928164005 0.17071034014
          0.14774373174 0.26516568661 0.076557151973 0.26419469714 0.20490050316 0.26405864954
          0.075755208731 0.14576232433 0.26166588068 0.38158491254 0.28896430135 0.1955075711
          0.2901442349 0.15883098543 0.21540506184 0.007068390958 -0.014977321029 0.101236552
          -0.087219022214 0.10121078789 0.041561905295 0.10193946213 -0.087772011757 -0.016337357461
          0.099414967 0.21952162683 0.14244991541 0.04433408007 0.14448200166 0.0055446713232
          0.065831698477 -0.15286646783 -0.17472489178 -0.054180849344 -0.25029575825 -0.054787330329
          -0.11561128497 -0.052906211466 -0.25123479962 -0.17650283873 -0.055471736938 0.06969191134
          -0.0043874732219 -0.10439501703 -0.0030043099541 -0.14418752491 -0.082100205123 -0.30526775122
          -0.32674744725 -0.20378956199 -0.40360873938 -0.20534665883 -0.26742905378 -0.20324647427
          -0.40520232916 -0.33083948493 -0.20761205256 -0.078623123467 -0.15768133104 -0.25805470347
          -0.15739229321 -0.29714298248 -0.23506090045 -0.45955637097 -0.48237636685 -0.35850867629
          -0.56017553806 -0.35927644372 -0.42170768976 -0.35795408487 -0.55997592211 -0.4844982028
          -0.35939151049 -0.23353934288 -0.30554020405 -0.4044841826 -0.30492714047 -0.44291839004
          -0.38180822134 -0.6027482748 -0.62504768372 -0.50273823738 -0.70260024071 -0.5031901598
          -0.56491684914 -0.5019261837 -0.70296275616 -0.626978755 -0.50384324789 -0.38062232733
          -0.26912680268 -0.20215310156 -0.26822373271 -0.17593927681 -0.21783524752 -0.071072287858
          -0.057990506291 -0.13736574352 -0.0065988604911 -0.13579306006 -0.093338780105 -0.13784649968
          -0.0031196887139 -0.051377780735 -0.13337153196 -0.21764652431 0.04889145866 0.064612969756
          0.11384316534 -0.017944423482 0.027232291177 0.11634151638 0.070719383657 -0.08746740967
          -0.19914743304 -0.31037703156 -0.37775963545 -0.1983577013 -0.022381152958 -0.19763241708
          -0.3729069531 -0.19619987905 -0.30033296347 -0.089289955795 -0.19387200475 -0.02448486723
          -0.16990064085 -0.27473393083 -0.38256391883 -0.45232376456 -0.27734169364 -0.10701682419
          -0.2773860991 -0.45260226727 -0.27707722783 -0.38324666023 -0.16926190257 -0.27443301678
          -0.10628794134 -0.19747683406 -0.29200607538 -0.3860424459 -0.4470076859 -0.29243955016
          -0.1392980963 -0.29132881761 -0.446313411 -0.28918778896 -0.38280180097 -0.18905316293
          -0.28311789036 -0.1352225095 -0.14093509316 -0.21501901746 -0.29125773907 -0.34053084254
          -0.21543104947 -0.092351831496 -0.21495434642 -0.34045699239 -0.21361067891 -0.29082268476
          -0.13329386711 -0.21025009453 -0.08917876333 -0.040656607598 -0.089469820261 -0.13496223092
          -0.15735524893 -0.084678433836 -0.0081890085712 -0.082771502435 -0.15319827199 -0.083016358316
          -0.1263165772 -0.04137384519 -0.085564240813 -0.0099031738937 -1.6701839564e-11 2.359072937e-10
          1.2191491306e-12 -1.8804955856e-11 7.6813715111e-11 2.5508152882e-11 7.3088861352e-12 1.061258503e-12
          -8.1597509511e-14 0 0 0 -1.0276657997e-12
        </DataArray>
        <DataArray type="Float32" Name="uz" format="ascii" RangeMin="-0.58090150356" RangeMax="0.25214642286">
          0.13389229774 0.089003182948 0.14988048375 0.11090897024 0.074375607073 0.084160894156
          0.0282516554 0.075473606586 0.013235882856 0.016921114177 0.041351422668 -0.05413883552
          0.018345726654 -0.016122557223 0.20848837495 0.16905966401 0.13136537373 0.1332783103
          0.051868144423 -0.018589504063 -0.0083989305422 -0.0018922988093 -0.0614079386 0.14851219952
          0.17065377533 0.21715655923 0.076134890318 -0.19902555645 -0.17871654034 -0.20410765707
          -0.18156294525 -0.17871879041 -0.21383814514 -0.16479898989 -0.13788618147 -0.1764805913
          -0.13267962635 -0.13009804487 -0.13152401149 -0.1577578336 -0.12001404911 -0.15037046373
          -0.16840611398 -0.10831065476 -0.10073697567 -0.15327851474 -0.14120568335 -0.13503885269
          -0.10031296313 -0.16279739141 -0.19541834295 -0.10225573927 -0.06419248879 -0.11632794142
          -0.058320041746 -0.14465887845 -0.085572972894 -0.1898227036 -0.21987847984 -0.21126796305
          -0.17615105212 -0.18491408229 -0.19467540085 -0.22205722332 -0.14726394415 -0.11757112294
          -0.14858132601 -0.12444026023 -0.16851145029 -0.17651353776 -0.12936344743 -0.15083183348
          -0.18455938995 -0.2114494592 -0.15362003446 -0.20712175965 -0.17282669246 -0.15857994556
          -0.21822497249 -0.24896620214 -0.17817837 -0.1281003952 -0.14938490093 -0.16862727702
          -0.18805886805 -0.22116735578 -0.10991564393 -0.2166275382 -0.25389790535 -0.2671353817
          -0.12150710076 -0.18874572217 -0.16052265465 -0.12080517411 -0.23194900155 -0.26157855988
          -0.20822663605 -0.13918569684 -0.14483119547 -0.21448132396 -0.20152382553 -0.26178622246
          -0.088017977774 -0.28327131271 -0.32060679793 -0.31234565377 -0.081747204065 -0.16677305102
          -0.13938391209 -0.074290536344 -0.23852102458 -0.27375409007 -0.22069044411 -0.13181295991
          -0.12796728313 -0.23881018162 -0.20289497077 -0.28935331106 -0.052699547261 -0.33239996433
          -0.37606662512 -0.35363942385 -0.031482234597 -0.16478905082 -0.13261796534 -0.05570282042
          -0.24811179936 -0.28935527802 -0.22637596726 -0.12240000814 -0.11943497509 -0.24705818295
          -0.20653824508 -0.3062645793 -0.03089684993 -0.35634219646 -0.40880858898 -0.38242799044
          -0.0056072608568 -0.18358166516 -0.14357435703 -0.074782378972 -0.25739890337 -0.30415254831
          -0.22462458909 -0.11656018347 -0.12315651029 -0.2379116565 -0.21190033853 -0.30902633071
          -0.032555941492 -0.34912523627 -0.40760806203 -0.38992753625 -0.017368240282 -0.2094386965
          -0.16461589932 -0.11273649335 -0.26220789552 -0.30890867114 -0.2204554975 -0.12246933579
          -0.13796974719 -0.22351698577 -0.21612429619 -0.29785507917 -0.057774715126 -0.3225851357
          -0.3802767396 -0.37434032559 -0.055206727237 -0.23655597866 -0.19437555969 -0.16344502568
          -0.2659150064 -0.30639132857 -0.22161272168 -0.14662657678 -0.16667418182 -0.21718204021
          -0.22624304891 -0.28322932124 -0.10778517276 -0.29120069742 -0.33985647559 -0.34550124407
          -0.11452408135 -0.26138991117 -0.23019528389 -0.21831211448 -0.27043178678 -0.2987831533
          -0.22970227897 -0.18487088382 -0.20632311702 -0.21916528046 -0.24128575623 -0.2701984942
          -0.17219139636 -0.26304471493 -0.29955974221 -0.31385532022 -0.18531692028 -0.29152822495
          -0.27314013243 -0.28643026948 -0.2722453177 -0.28598818183 -0.24350716174 -0.2313118428