<VTKFile type="UnstructuredGrid" version="1.0" byte_order="LittleEndian" header_type="UInt64">
  <UnstructuredGrid>
    <Piece NumberOfPoints="791" NumberOfCells="973">
      <PointData>
        <DataArray type="Float32" Name="ux" format="ascii" RangeMin="-0.51871913671" RangeMax="0.51875191927">
          -0.087189882994 0.050073873252 -0.13238078356 -0.10774566233 -0.087205499411 -0.13240079582
          0.049972590059 0.087046571076 0.29048171639 0.22967943549 0.10732977837 0.2905010581
          0.087015323341 0.22976189852 -0.29046061635 -0.23003813624 -0.29043978453 -0.22996899486
          0.16465562582 0.28923973441 0.16468264163 0.32944825292 0.32948154211 -0.32961249352
          -0.28975614905 -0.32964459062 5.4992942751e-06 -0.12153644115 0.060627508909 0.1215839237
          -0.11730020493 0.058419365436 0.11729314923 -0.15845599771 -0.15277168155 -0.31746318936
          -0.30634188652 0.060209762305 0.31505456567 0.19547705352 0.057869166136 0.30286359787
          0.18826675415 0.12004556507 0.11516094953 1.5061193153e-05 -1.6665348085e-05 -0.15779176354
          -0.15184277296 0.39089968801 0.37664312124 -0.12003947049 -0.11522644758 -0.31499400735
          -0.30282711983 -0.39087748528 -0.37663295865 0.31745913625 0.30626878142 -0.12545867264
          0.062627747655 0.12553268671 -0.16368272901 -0.32789123058 0.062275961041 0.32585245371
          0.20203576982 0.12422197312 2.8395468689e-05 -0.16311135888 0.40404766798 -0.12418396026
          -0.32576686144 -0.40398648381 0.3279234767 -0.12912286818 0.064522966743 0.12919804454
          -0.16869829595 -0.33772796392 0.064308561385 0.33652156591 0.20838175714 0.12840034068
          3.2678264688e-05 -0.16835257411 0.41673246026 -0.128346771 -0.33643981814 -0.41666641831
          0.33777621388 -0.13254266977 0.066276736557 0.13257929683 -0.17342795432 -0.34694230556
          0.066226735711 0.34668052197 0.21435768902 0.13239273429 1.684171184e-05 -0.1733482182
          0.42869803309 -0.1323633492 -0.34664234519 -0.42866253853 0.34697344899 -0.13572894037
          0.067907914519 0.13570992649 -0.17787542939 -0.35556194186 0.068039923906 0.35633260012
          0.21998365223 0.13619998097 -6.9323173193e-06 -0.17809069157 0.43997466564 -0.13620837033
          -0.35635709763 -0.43998855352 0.35555842519 -0.1387052983 0.069426059723 0.13861908019
          -0.18204687536 -0.36362266541 0.069741465151 0.3654178381 0.22525763512 0.13978779316
          -3.5763241613e-05 -0.18255725503 0.45055097342 -0.13984394073 -0.36551401019 -0.45062279701
          0.36357566714 -0.14147996902 0.070848114789 0.14134134352 -0.18593344092 -0.3711412251
          0.071332022548 0.37388831377 0.23018071055 0.14313438535 -5.7656121498e-05 -0.18671549857
          0.46041846275 -0.14322526753 -0.37404116988 -0.4605345726 0.3710629344 -0.14406938851
          0.072178512812 0.14389617741 -0.18953676522 -0.37814024091 0.07280240953 0.38168901205
          0.23474344611 0.14620861411 -7.1681366535e-05 -0.1905451715 0.46955826879 -0.14632058144
          -0.38188067079 -0.46970200539 0.3780451715 -0.14648760855 0.073422439396 0.146302104
          -0.19285905361 -0.38464024663 0.074146814644 0.38878053427 0.23894168437 0.14898897707
          -7.6256103057e-05 -0.1940317452 0.47795942426 -0.14910592139 -0.38898926973 -0.47811162472
          0.38454526663 -0.14874698222 0.074580796063 0.14856745303 -0.19590361416 -0.39065781236
          0.075360260904 0.39513263106 0.24276967347 0.15145841241 -7.1622016549e-05 -0.1971655786
          0.4856108427 -0.15156438947 -0.39533728361 -0.48575511575 0.39057537913 -0.15084423125
          0.075656466186 0.15069694817 -0.19866257906 -0.39618435502 0.076441638172 0.40072634816
          0.24622289836 0.15360933542 -5.4850846936e-05 -0.1999335885 0.49250096083 -0.15368184447
          -0.40089765191 -0.49261108041 0.39613586664 -0.15278157592 0.076640322804 0.15267951787
          -0.20113885403 -0.40121760964 0.077382795513 0.40555024147 0.24928952754 0.15543337166
          -3.3606942452e-05 -0.20234151185 0.49861201644 -0.15546615422 -0.40567573905 -0.4986795187
          0.40120849013 -0.15455426276 0.077520661056 0.15449382365 -0.20333224535 -0.40574157238
          0.078179195523 0.40960925817 0.25195887685 0.1569339186 -1.410146524e-05 -0.20439690351
          0.50393164158 -0.15693001449 -0.40968862176 -0.5039601326 0.40576401353 -0.1561408788
          0.078293047845 0.15612185001 -0.20523107052 -0.40972065926 0.078833684325 0.41292527318
          0.25422811508 0.15812398493 3.6049950722e-06 -0.20610526204 0.50845247507 -0.15809063613
          -0.41295936704 -0.5084450841 0.40976965427 -0.1575152874 0.078950710595 0.15753804147
          -0.20682103932 -0.41310864687 0.079353563488 0.41553238034 0.25609496236 0.15902842581
          2.1104402549e-05 -0.20747321844 0.51216870546 -0.15896812081 -0.41552117467 -0.51212608814
          0.413182199 -0.15864755213 0.079479038715 0.15870197117 -0.20808690786 -0.41584935784
          0.079741328955 0.41746291518 0.25754797459 0.15966972709 3.4166507248e-05 -0.20851069689
          0.51506215334 -0.15958975255 -0.41741406918 -0.51499313116 0.41593760252 -0.15950928628
          0.079861223698 0.15957325697 -0.20901951194 -0.41789138317 0.079998582602 0.41876348853
          0.25857922435 0.16007471085 3.5674613173e-05 -0.20924162865 0.51712274551 -0.15999785066
          -0.41870212555 -0.51705139875 0.41797220707 -0.16006232798 0.080089770257 0.16011561453
          -0.20960094035 -0.41917130351 0.080136016011 0.41949033737 0.25918912888 0.16028025746
          2.7605085052e-05 -0.20967647433 0.51835042238 -0.16022449732 -0.41943868995 -0.51829570532
          0.4192288816 -0.16026087105 0.080158382654 0.16029308736 -0.20980478823 -0.41961503029
          0.080172874033 0.41971597075 0.25938412547 0.16033580899 1.659269401e-05 -0.20982779562
          0.51875191927 -0.16030213237 -0.41968366504 -0.51871913671 0.41964834929 -0.10974738747
          0.054754219949 0.10969248414 -0.14314863086 -0.28639045358 0.054442256689 0.28516691923
          0.17657615244 0.10878691822 -9.1743268058e-06 -0.14273652434 0.35312390327 -0.10885353386
          -0.28523543477 -0.35314288735 0.28627929091 0.051220625639 0.26821532845 0.10281831771
          -0.00010053964797 -0.13397349417 -0.1029278487 -0.26827931404 -0.11734837294 0.058385204524
          0.11725784093 -0.12160994112 0.060560073704 0.12152114511 -0.15281949937 -0.15853184462
          -0.30639925599 -0.31754565239 0.057831004262 0.30283623934 0.18823392689 0.060142297298
          0.31499564648 0.1954151094 0.11512482166 0.11998017877 -5.6238211982e-05 -5.4442160035e-05
          -0.15188989043 -0.15786734223 0.37661960721 0.39084473252 -0.11527176946 -0.12011244148
          -0.30288103223 -0.31507498026 -0.37669205666 -0.3909624517 0.30624195933 0.31740355492
          -0.12555006146 0.062540255487 0.12544704974 -0.1637750566 -0.32798776031 0.06218817085
          0.32576745749 0.20194970071 0.12413549423 -6.049546937e-05 -0.1632027477 0.40396386385
          -0.12427325547 -0.32586050034 -0.40408366919 0.32783994079 -0.12921020389 0.064435772598
          0.12911172211 -0.16878600419 -0.33781653643 0.064221285284 0.33643257618 0.20829363167
          0.12831304967 -5.4595671827e-05 -0.16843912005 0.41664335132 -0.12843175232 -0.33652538061
          -0.41675430536 0.33768892288 -0.13259895146 0.066217705607 0.13251972198 -0.17348377407
          -0.34699633718 0.066168248653 0.34661671519 0.21429641545 0.1323338747 -4.0881266614e-05
          -0.17340324819 0.4286326766 -0.13241752982 -0.34669464827 -0.42871487141 0.34691041708
          -0.13573893905 0.067894466221 0.13569550216 -0.1778845489 -0.35556787252 0.068027034402
          0.35631394386 0.2199678272 0.13618585467 -1.8836220988e-05 -0.17809952796 0.43995425105
          -0.13621763885 -0.35636261106 -0.43999260664 0.35554003716 -0.13865993917 0.0694648996
          0.13865533471 -0.1819999665 -0.36356958747 0.06978046149 0.36544784904 0.22529186308
          0.13982447982 5.3093840506e-06 -0.18251052499 0.45057827234 -0.13979901373 -0.36546179652
          -0.4505674541 0.36360508204 -0.14138628542 0.070933699608 0.14142425358 -0.18583862484
          -0.37103945017 0.071417406201 0.37396496534 0.23026128113 0.14321736991 3.039886542e-05
          -0.18662136793 0.4604921937 -0.14313361049 -0.37394174933 -0.46043094993 0.37113848329
          -0.14393876493 0.072302810848 0.14401808381 -0.18940503895 -0.3780028522 0.072926044464
          0.3818064034 0.23486380279 0.14633031189 5.451578545e-05 -0.19041475654 0.46967327595
          -0.14619286358 -0.3817461431 -0.4695635438 0.37816104293 -0.1463419199 0.073565922678
          0.14644360542 -0.19271197915 -0.38449063897 0.074290513992 0.38892143965 0.23908390105
          0.14913146198 6.8924906373e-05 -0.19388502836 0.47809895873 -0.14896090329 -0.38884082437
          -0.47796088457 0.38468471169 -0.14861303568 0.074715085328 0.14870058 -0.19576883316
          -0.3905223906 0.075494550169 0.39526772499 0.24290435016 0.15159226954 6.2682483986e-05
          -0.19703103602 0.48574617505 -0.15143084526 -0.3952023387 -0.48561912775 0.39070960879
          -0.15074813366 0.075756058097 0.15079759061 -0.1985667944 -0.39609161019 0.076541319489
          0.40083122253 0.24632523954 0.15371000767 4.3798514525e-05 -0.19983811677 0.4926070869
          -0.15358620882 -0.40080538392 -0.49251955748 0.39624023438 -0.15273411572 0.076690800488
          0.15273097157 -0.20109191537 -0.40117362142 0.077433563769 0.40560474992 0.24934211373
          0.15548507869 1.6139621948e-05 -0.20229433477 0.498668015 -0.15541809797 -0.40563130379
          -0.49863702059 0.40126332641 -0.15454933047 0.077522844076 0.1544957757 -0.20332725346
          -0.40573495626 0.078180499375 0.40960675478 0.25195878744 0.15693411231 -1.1285319488e-05
          -0.20439206064 0.50392889977 -0.15692524612 -0.40968108177 -0.503952384 0.40576320887
          -0.15617056191 0.078256845474 0.15608434379 -0.20525933802 -0.40974372625 0.078796178102
          0.41287600994 0.25418549776 0.15808361769 -3.0808630981e-05 -0.20613320172 0.5084015131
          -0.15811955929 -0.41298037767 -0.50846457481 0.40972360969 -0.15756823123 0.07888686657
          0.15747113526 -0.20687191188 -0.41315084696 0.079289279878 0.41545054317 0.25602203608
          0.1589602232 -3.9491318603e-05 -0.20752319694 0.51208341122 -0.15901920199 -0.41556084156
          -0.51216304302 0.41310316324 -0.15871165693 0.079403534532 0.1586240977 -0.20814906061
          -0.41590255499 0.079666003585 0.41736996174 0.25746363401 0.15959097445 -3.7528592657e-05
          -0.20857201517 0.51496464014 -0.15965159237 -0.41746452451 -0.51504051685 0.41584652662
          -0.15956045687 0.07979722321 0.15950582922 -0.20906896889 -0.41792985797 0.079934574664
          0.41868108511 0.2585054636 0.16000729799 -2.4120388844e-05 -0.20929017663 0.51703500748
          -0.16004765034 -0.41873914003 -0.51708459854 0.41789075732 -0.1600792557 0.080059349537
          0.16008129716 -0.20961490273 -0.41917356849 0.080106124282 0.4194406569 0.25914868712
          0.16024622321 1.8191930167e-06 -0.20968951285 0.51829558611 -0.16023929417 -0.41943907738
          -0.51829177141 0.41917976737 -0.16023178399 0.080174185336 0.160305053 -0.20977324247
          -0.41957181692 0.080187961459 0.41971224546 0.2593896687 0.16034668684 3.6623667256e-05
          -0.20979648829 0.51874279976 -0.16027349234 -0.41964027286 -0.51866996288 0.41964539886
          -0.10974123329 0.054736960679 0.1096970886 -0.14315417409 -0.2863868773 0.054431900382
          0.28515854478 0.17657545209 0.10877232999 -2.0197328922e-05 -0.14274805784 0.35312518477
          -0.10887034237 -0.28525054455 -0.35314756632 0.28628787398 0.051221642643 0.26820680499
          0.10281594843 -7.7439908637e-05 -0.13396885991 -0.10293060541 -0.26828557253 0.17844638228
          0.22122630477 0.17846646905 0.067939020693 0.08470787853 0.067948810756 -0.00015488054487
          -0.068209737539 -0.084907092154 -0.17868830264 -0.17870715261 -0.22141006589 -0.068205207586
          0.13386429846 0.16511146724 0.13385930657 0.051169078797 0.063754245639 0.051165502518
          -6.5200496465e-05 -0.051308248192 -0.063912451267 -0.13400933146 -0.13400638103 -0.16527146101
          -0.051311194897 0.094731889665 0.11702991277 0.094733193517 0.036192458123 0.045090600848
          0.036192659289 -4.0814684326e-05 -0.036272298545 -0.045165777206 -0.094811119139 -0.094812974334
          -0.11710624397 -0.036272894591 0.059861186892 0.073864519596 0.059860467911 0.022891324013
          0.028538489714 0.022890683264 -1.2488891116e-05 -0.0229172986 -0.028565526009 -0.059887070209
          -0.05988843739 -0.073892258108 -0.022919179872 0.028460249305 0.035050205886 0.028461994603
          0.010908599012 0.013631723821 0.010907080024 -1.0168124618e-06 -0.010910958052 -0.01363348309
          -0.028464185074 -0.028463186696 -0.035051714629 -0.01091106981 0 0
          0 0 0 0 0 0
          0 0 0 0 0
        </DataArray>
        <DataArray type="Float32" Name="uy" format="ascii" RangeMin="-1.5078766346" RangeMax="1.5076724291">
          0.27124756575 0.25501748919 0.24228453636 -6.8019093305e-05 -0.27135574818 -0.24238996208
          -0.25512304902 0.27082070708 0.26377132535 0.16827014089 -5.0007467507e-05 -0.26388704777
          -0.27094602585 -0.16837657988 0.26340797544 0.16847254336 -0.26351448894 -0.16859023273
          0.22046774626 -5.2418014093e-05 -0.22055016458 0.22042426467 -0.22051070631 -0.22050312161
          -5.2732830227e-05 0.22040678561 -6.0965303419e-05 -1.1548752785 -0.96861761808 -1.1549042463
          -1.27564466 -1.0949101448 -1.2757203579 -0.89729058743 -1.0258164406 -1.0115597248
          -1.1367108822 -0.59711760283 -0.55239337683 -0.78225755692 -0.73631548882 -0.69295459986
          -0.91459417343 -0.4119040966 -0.55832898617 -0.78264474869 -0.91505682468 -0.66768836975
          -0.80415952206 -0.78109622002 -0.91344767809 -0.41187030077 -0.55826419592 -0.55238938332
          -0.69294571877 -0.78112995625 -0.91345787048 -1.0115684271 -1.1366693974 -1.0019339323
          -0.80924737453 -1.001967907 -0.73551398516 -0.85392361879 -0.42494723201 -0.37890005112
          -0.61655074358 -0.23335900903 -0.61687898636 -0.49800682068 -0.61563545465 -0.23332805932
          -0.37890064716 -0.6156565547 -0.85392272472 -0.82171165943 -0.6232560277 -0.82173025608
          -0.54736697674 -0.66960126162 -0.22695678473 -0.17975148559 -0.42477661371 -0.029137723148
          -0.42497560382 -0.30243998766 -0.42420813441 -0.029120540246 -0.17975391448 -0.42422395945
          -0.66960328817 -0.62461680174 -0.42069354653 -0.62462204695 -0.34278267622 -0.46871766448
          -0.012995043769 0.035226862878 -0.21676810086 0.19077768922 -0.21681404114 -0.090812064707
          -0.21663627028 0.19078139961 0.035225760192 -0.21663962305 -0.46871811152 -0.42296037078
          -0.21393060684 -0.42294898629 -0.13414019346 -0.2635833323 0.20451749861 0.2536469996
          -0.0049110339023 0.41394650936 -0.0047874907032 0.12447509915 -0.0052578290924 0.41393485665
          0.25364637375 -0.0052490658127 -0.26358324289 -0.23036958277 -0.016562633216 -0.23034204543
          0.064979851246 -0.067768894136 0.41197088361 0.4619295001 0.19721888006 0.62672501802
          0.19751162827 0.32982829213 0.19639289379 0.62669783831 0.46192827821 0.19641181827
          -0.067766912282 -0.060466140509 0.15779817104 -0.060423735529 0.24097694457 0.10514868051
          0.59573668242 0.64647310972 0.37602365017 0.81545358896 0.37647214532 0.51163816452
          0.37475657463 0.81541210413 0.64647161961 0.37478601933 0.1051517576 0.074233666062
          0.29664650559 0.074288286269 0.38135477901 0.24269174039 0.7432911396 0.79477846622
          0.51900959015 0.96757745743 0.51958811283 0.65739661455 0.5173754096 0.96752363443
          0.79477590322 0.51741290092 0.2426957041 0.16329674423 0.38955870271 0.16336001456
          0.47569775581 0.33446031809 0.84419727325 0.89642804861 0.61576277018 1.0726370811
          0.6164355278 0.75668019056 0.61386322975 1.0725747347 0.89642518759 0.61390775442
          0.33446407318 0.19918890297 0.42900747061 0.19925755262 0.51648277044 0.37294048071
          0.89091974497 0.94390022755 0.6587639451 1.1230815649 0.65948718786 0.80196064711
          0.65671986341 1.1230142117 0.94389694929 0.65676653385 0.37294611335 0.17782956362
          0.41090807319 0.17789828777 0.49962630868 0.35405859351 0.87935698032 0.93309807777
          0.64392405748 1.1147959232 0.64465284348 0.78914403915 0.64186519384 1.1147276163
          0.93309396505 0.64191234112 0.35406368971 0.09882837534 0.33486449718 0.098893038929
          0.42472919822 0.27741628885 0.80910378695 0.86361223459 0.57084065676 1.0473723412
          0.57153058052 0.71782547235 0.56889367104 1.0473080873 0.86360883713 0.56893873215
          0.27742010355 -0.034602958709 0.2040772438 -0.034545827657 0.29498553276 0.14620271325
          0.68335771561 0.73862957954 0.44270482659 0.9240154624 0.44331565499 0.59119725227
          0.44098106027 0.92395853996 0.73862612247 0.44102069736 0.14620634913 -0.21607099473
          0.024922544137 -0.21602442861 0.11676105857 -0.033223189414 0.50848609209 0.56449687481
          0.2658726275 0.75110292435 0.26637464762 0.41561993957 0.26445907354 0.75105631351
          0.56449449062 0.26449224353 -0.033220767975 -0.43670770526 -0.19375532866 -0.43667331338
          -0.10111431777 -0.25204271078 0.29332497716 0.35002371669 0.049164813012 0.5374879241
          0.049539022148 0.19991751015 0.048113066703 0.53745305538 0.35002121329 0.048137489706
          -0.25204089284 -0.68614345789 -0.44161549211 -0.6861217618 -0.34831720591 -0.49994632602
          0.048205398023 0.10550674051 -0.19710840285 0.29351994395 -0.19686514139 -0.045591473579
          -0.19778908789 0.29349756241 0.10550493747 -0.19777324796 -0.49994578958 -0.95373284817
          -0.70804268122 -0.95372253656 -0.61425131559 -0.76635545492 -0.21626350284 -0.1584828645
          -0.46236425638 0.029835848138 -0.46223601699 -0.31031548977 -0.4627148509 0.029824789613
          -0.15848386288 -0.46270605922 -0.76635587215 -1.229949832 -0.98354077339 -1.2299468517
          -0.8894392252 -1.0418121815 -0.49058651924 -0.43248680234 -0.7371353507 -0.24403785169
          -0.73709225655 -0.58477663994 -0.73724681139 -0.24404102564 -0.43248677254 -0.73724418879
          -1.0418118238 -1.5078766346 -1.2612226009 -1.5078765154 -1.1670155525 -1.3194754124
          -0.76787507534 -0.70966309309 -1.014570713 -0.52118176222 -1.0145573616 -0.8621096015
          -1.0145944357 -0.52118170261 -0.70966428518 -1.0145936012 -1.3194742203 -1.0614956617
          -0.91598170996 -1.0616508722 -0.86071181297 -0.95000874996 -0.62873834372 -0.59440732002
          -0.77174216509 -0.48579990864 -0.77187347412 -0.68321150541 -0.77139788866 -0.48579648137
          -0.59435594082 -0.77139508724 -0.94987934828 -0.18287067115 -0.17412014306 -0.14382216334
          -0.22041364014 -0.19756399095 -0.14388853312 -0.17409817874 1.2756918669 1.0949475765
          1.2757670879 1.1549646854 0.96869909763 1.154992938 1.0258489847 0.89736968279
          1.1367498636 1.0116431713 0.73633533716 0.69297122955 0.91462266445 0.59718513489
          0.55245906115 0.78233140707 0.55834078789 0.41196542978 0.91508471966 0.7827193141
          0.80418181419 0.66775840521 0.91347450018 0.78116941452 0.55827659369 0.41193121672
          0.69296360016 0.5524546504 0.91348534822 0.78120404482 1.136708498 1.0116505623
          1.0020358562 0.80934476852 1.0020688772 0.73560994864 0.85402184725 0.42503839731
          0.37899115682 0.61664485931 0.23344810307 0.61697268486 0.49809801579 0.61572903395
          0.23341548443 0.37898874283 0.61574870348 0.85402011871 0.82180380821 0.62334746122
          0.8218215704 0.54745787382 0.66969257593 0.2270488441 0.17984487116 0.42486837506
          0.029231542721 0.42506682873 0.30253040791 0.42429989576 0.029212260619 0.17984312773
          0.42431333661 0.66969376802 0.62467896938 0.42075806856 0.62468349934 0.34284871817
          0.46878176928 0.013065989129 -0.035155057907 0.21683561802 -0.19070321321 0.21688175201
          0.090881086886 0.21670283377 -0.19070833921 -0.035155914724 0.21670618653 0.4687808454
          0.42297691107 0.21395091712 0.42296516895 0.13416233659 0.26360249519 -0.20448845625
          -0.25361704826 0.0049357847311 -0.41391336918 0.00481214514 -0.1244475916 0.0052816644311
          -0.4139020741 -0.25361686945 0.0052733984776 0.26360204816 0.23032212257 0.016522154212
          0.23029489815 -0.065017431974 0.067727059126 -0.41199761629 -0.46195465326 -0.19725237787
          -0.6267452836 -0.19754518569 -0.329857409 -0.19642627239 -0.62671786547 -0.46195292473
          -0.19644474983 0.067725196481 0.060370020568 -0.15788654983 0.060327969491 -0.24106249213
          -0.10523846745 -0.59581184387 -0.64654666185 -0.37610509992 -0.81552231312 -0.37655377388
          -0.51171517372 -0.37483716011 -0.81548005342 -0.6465433836 -0.37486612797 -0.10524073243
          -0.074344500899 -0.29675099254 -0.074398376048 -0.3814573288 -0.24279777706 -0.74338525534
          -0.79487115145 -0.51910841465 -0.96766674519 -0.51968723536 -0.65749233961 -0.51747334003
          -0.96761202812 -0.79486733675 -0.51751118898 -0.24280017614 -0.16339385509 -0.3896523118
          -0.16345648468 -0.47579014301 -0.33455449343 -0.84428530931 -0.89651560783 -0.61585348845
          -1.072723031 -0.61652624607 -0.75676840544 -0.61395293474 -1.0726593733 -0.89651072025
          -0.61399686337 -0.33455732465 -0.19924928248 -0.4290664494 -0.19931615889 -0.51654267311
          -0.37300139666 -0.89097827673 -0.94395899773 -0.65882229805 -1.1231403351 -0.65954649448
          -0.80201935768 -0.6567773819 -1.1230717897 -0.94395399094 -0.65682578087 -0.373003304
          -0.17783902586 -0.41092005372 -0.17790694535 -0.49964034557 -0.35407090187 -0.879375875
          -0.9331176877 -0.64393919706 -1.1148184538 -0.6446685791 -0.78916180134 -0.6418800354
          -1.1147500277 -0.93311351538 -0.64192837477 -0.35407423973 -0.09878757596 -0.33482718468
          -0.098852552474 -0.42469340563 -0.27737799287 -0.80907428265 -0.86358356476 -0.57080739737
          -1.0473462343 -0.57149702311 -0.71779453754 -0.56886047125 -1.0472820997 -0.86358058453
          -0.56890553236 -0.27738243341 0.034677706659 -0.20400027931 0.034620303661 -0.2949077189
          -0.14612665772 -0.68327647448 -0.73854839802 -0.44262573123 -0.92393183708 -0.44323652983
          -0.59111708403 -0.44090288877 -0.92387509346 -0.73854553699 -0.44094276428 -0.14613065124
          0.21616026759 -0.024826563895 0.21611316502 -0.11666256934 0.03331707418 -0.50837528706
          -0.56438475847 -0.26576986909 -0.75098389387 -0.26627141237 -0.4155125618 -0.2643571794
          -0.75093781948 -0.56438302994 -0.26439028978 0.033313836902 0.43678322434 0.19384087622
          0.43674838543 0.10120387375 0.25212526321 -0.29321742058 -0.34991368651 -0.049068890512
          -0.53736788034 -0.04944280535 -0.19981522858 -0.048018049449 -0.53733408451 -0.34991261363
          -0.048042833805 0.25212329626 0.68618035316 0.44166332483 0.68615806103 0.34836938977
          0.49999108911 -0.048132933676 -0.10543137044 0.19716779888 -0.29343408346 0.19692462683
          0.045658528805 0.19784769416 -0.29341283441 -0.10543111712 0.19783186913 0.49998956919
          0.95370793343 0.70802992582 0.95369672775 0.61424356699 0.76633995771 0.2162771225
          0.15849977732 0.4623644352 -0.029808405787 0.46223649383 0.3103235662 0.46271413565
          -0.029798381031 0.15849889815 0.46270507574 0.76633900404 1.2298406363 0.98344451189
          1.2298371792 0.88934797049 1.0417126417 0.49051773548 0.43242144585 0.73705238104
          0.24398387969 0.73700946569 0.58470225334 0.73716336489 0.2439866513 0.43242058158
          0.7371609211 1.0417119265 1.5076723099 1.2610324621 1.5076724291 1.1668303013
          1.3192815781 0.76771396399 0.70950567722 1.0143951178 0.52103489637 1.0143814087
          0.8619428277 1.0144189596 0.52103471756 0.70950603485 1.0144174099 1.3192805052
          1.061427474 0.91592383385 1.0615843534 0.86066323519 0.94995141029 0.62869769335
          0.59436911345 0.77169013023 0.48576802015 0.77182590961 0.68317210674 0.77134871483
          0.48576584458 0.59432166815 0.77135127783 0.94981861115 0.18279825151 0.17405293882
          0.14376538992 0.22032171488 0.19747704268 0.14382745326 0.17402036488 -0.12967288494
          -7.748164353e-05 0.12951683998 0.20923735201 -7.9248216935e-05 -0.20938935876 -7.6350428571e-05
          0.20913682878 -7.3961302405e-05 0.12948198617 -0.12963275611 -7.6090516814e-05 -0.20929211378
          -0.097251951694 -7.0735564805e-05 0.097110614181 0.15738159418 -7.0466070611e-05 -0.15752473474
          -7.0974689152e-05 0.15740332007 -7.1652451879e-05 0.097114980221 -0.097257070243 -7.0675370807e-05
          -0.15754555166 -0.068869791925 -6.3395331381e-05 0.068743385375 0.1113556996 -6.3227736973e-05
          -0.11148180068 -6.2947001425e-05 0.11135146022 -6.2388346123e-05 0.068744137883 -0.068868629634
          -6.1940030719e-05 -0.1114769876 -0.043480280787 -4.7555680794e-05 0.043384715915 0.070317871869
          -4.7723140597e-05 -0.070414148271 -4.7862889915e-05 0.070318780839 -4.7740788432e-05 0.043384049088
          -0.043479062617 -4.7162655392e-05 -0.070414558053 -0.020634591579 -2.2247766537e-05 0.020590541884
          0.033432673663 -2.1571338948e-05 -0.033475030214 -2.1379253667e-05 0.0334321931 -2.1685913453e-05
          0.02059029229 -0.020634241402 -2.2512833311e-05 -0.033474769443 0 0
          0 0 0 0 0 0
          0 0 0 0 0
        </DataArray>
        <DataArray type="Float32" Name="uz" format="ascii" RangeMin="-0.15611159801" RangeMax="0.15603637695">
          -0.00018495491531 0.00068908225512 -0.0016389802331 8.2647211457e-06 0.00022012270347 0.0016716087703
          -0.0006778378156 0.00035716118873 0.0027132418472 0.00088645867072 6.2204989604e-08 -0.0027275644243
          -0.00033540371805 -0.00089190650033 -0.0025555279572 -0.0010078884661 0.0026008624118 0.0010404580971
          0.0023906307761 -4.2960750761e-06 -0.0023792581633 0.0039492435753 -0.0039622238837 0.0039794272743
          1.843991231e-05 -0.0039302655496 3.8857710933e-06 0.025851342827 -0.012974805199 -0.025957157835
          0.020466985181 -0.010270180181 -0.020566055551 0.033817529678 0.026582313702 0.067832246423
          0.05303760618 -0.012990031391 -0.067983202636 -0.041907630861 -0.0099191069603 -0.051604524255
          -0.032649323344 -0.026035163552 -0.019440170377 -3.93524424e-05 -4.0486807848e-05 0.033861715347
          0.026035772637 -0.083957836032 -0.064884714782 0.025953287259 0.019413407892 0.067954286933
          0.051486369222 0.083846352994 0.064858421683 -0.067898020148 -0.053189970553 0.030963851139
          -0.015514281578 -0.031072204933 0.040459103882 0.081188172102 -0.01551400777 -0.081271059811
          -0.050113223493 -0.03107698448 -4.238693873e-05 0.040469851345 -0.10048601031 0.030990984291
          0.081227965653 0.10035294294 -0.081241600215 0.03465622291 -0.017340194434 -0.034761656076
          0.045236878097 0.090848386288 -0.017342697829 -0.090873628855 -0.05601574108 -0.034761127084
          -4.5894070354e-05 0.045232303441 -0.11238384247 0.034641727805 0.090829543769 0.11222625524
          -0.090882346034 0.036390665919 -0.018197944388 -0.036490090191 0.047483164817 0.095391102135
          -0.01820881106 -0.095430031419 -0.058797337115 -0.036513656378 -4.8934474762e-05 0.047476127744
          -0.11801239103 0.03636983037 0.095380023122 0.117839396 -0.095414221287 0.035879917443
          -0.017937492579 -0.035975828767 0.046803161502 0.094051279128 -0.017951497808 -0.094086557627
          -0.0579582192 -0.036003839225 -4.98288573e-05 0.046794861555 -0.11635430157 0.03585171327
          0.094033718109 0.11617530882 -0.094069495797 0.033008515835 -0.016506353393 -0.033106226474
          0.043052125722 0.086533658206 -0.016518810764 -0.086572282016 -0.053323216736 -0.033132065088
          -5.0512764574e-05 0.043044149876 -0.10706386715 0.032982181758 0.086517080665 0.10688713193
          -0.086556702852 0.027871761471 -0.013949453831 -0.027974909171 0.036351360381 0.073085941374
          -0.013958418742 -0.073132611811 -0.04504256323 -0.027993030846 -5.0821832701e-05 0.036345425993
          -0.090445093811 0.027852799743 0.073073908687 0.09027697891 -0.073121927679 0.020748000592
          -0.010402647778 -0.020854776725 0.027061276138 0.054432921112 -0.010407344438 -0.054490033537
          -0.033559180796 -0.020864220336 -4.988040746e-05 0.027058068663 -0.067390196025 0.020738052204
          0.054426446557 0.067238464952 -0.054484479129 0.012068014592 -0.0060822945088 -0.012179085985
          0.01574242115 0.031703319401 -0.0060820388608 -0.031775832176 -0.019570402801 -0.012178762816
          -4.9958165619e-05 0.015742504969 -0.039299305528 0.012068024836 0.031703315675 0.039165578783
          -0.031776316464 0.0023798516486 -0.0012617497705 -0.0024971191306 0.0031090469565 0.0063342940994
          -0.0012560265604 -0.0064267427661 -0.0039599966258 -0.0024858408142 -5.1146085752e-05 0.0031126120593
          -0.0079495180398 0.0023911262397 0.0063414373435 0.0078327804804 -0.0064338706434 -0.0076982835308
          0.0037527510431 0.007574158255 -0.010033769533 -0.020055022091 0.0037622759119 0.019941637293
          0.012279069982 0.0075941663235 -5.3586947615e-05 -0.010027981363 0.024662293494 -0.0076788398437
          -0.020043067634 -0.024761231616 0.019929202273 -0.01753115654 0.0086504863575 0.017409119755