<VTKFile type="UnstructuredGrid" version="1.0" byte_order="LittleEndian" header_type="UInt64">
  <UnstructuredGrid>
    <Piece NumberOfPoints="791" NumberOfCells="973">
      <PointData>
        <DataArray type="Float32" Name="ux" format="ascii" RangeMin="-1.5690124035" RangeMax="0.79057705402">
          -0.037474706769 -0.015678413212 -0.026125518605 -0.0428494066 -0.042092051357 -0.02791589126
          -0.017824383453 -0.023921707645 -0.0013618984958 -0.012410515919 -0.025790113956 -0.0022130077705
          -0.027742417529 -0.014215104282 -0.045852735639 -0.049117606133 -0.053309563547 -0.051137670875
          0.0051814904436 -0.0043082605116 0.0065852380358 0.017771171406 0.020640660077 -0.036989666522
          -0.052370976657 -0.034435864538 -0.034848559648 0.16328677535 0.17153075337 0.17534156144
          0.099574290216 0.10816318542 0.11234816164 0.16084586084 0.096396587789 0.15331241488
          0.088672079146 0.17059507966 0.18183675408 0.1773647815 0.10759714991 0.12152055651
          0.1153159216 0.17284303904 0.11022698134 0.16808052361 0.10480796546 0.16045214236
          0.095539599657 0.18648287654 0.12597665191 0.16225653887 0.096213541925 0.15323978662
          0.085667230189 0.14966508746 0.083045616746 0.18436837196 0.12251576781 0.24345779419
          0.25036412477 0.25421023369 0.24090895057 0.23427465558 0.24892994761 0.2579998076
          0.2549187243 0.25050380826 0.24704216421 0.24092817307 0.26275968552 0.24251270294
          0.2352566421 0.23167467117 0.26186916232 0.33451163769 0.34167987108 0.34542474151
          0.33297270536 0.32618096471 0.34032306075 0.34776511788 0.34596645832 0.34145930409
          0.33890590072 0.33328947425 0.35316345096 0.3348274231 0.32858690619 0.32466712594
          0.35288634896 0.42525658011 0.43498489261 0.43948435783 0.42418649793 0.41540232301
          0.43353182077 0.44278234243 0.44045424461 0.4345562458 0.43160504103 0.42508620024
          0.44927883148 0.4270170629 0.41963970661 0.41457799077 0.44901257753 0.51576334238
          0.53194898367 0.53801196814 0.51351732016 0.4993660748 0.53055685759 0.54875302315
          0.54192847013 0.53356206417 0.52659142017 0.51445782185 0.55736118555 0.51768743992
          0.50377494097 0.49573552608 0.55432522297 0.59768247604 0.61949795485 0.62720775604
          0.59467834234 0.57604062557 0.61857843399 0.64519578218 0.63437074423 0.62372756004
          0.612398386 0.59567660093 0.65625745058 0.59939706326 0.57960295677 0.5699403882
          0.65015184879 0.67317330837 0.6972463131 0.70420598984 0.67003631592 0.64998793602
          0.69646590948 0.72791963816 0.71417748928 0.7024704814 0.68978583813 0.67019295692
          0.73910433054 0.67361503839 0.65122491121 0.64230173826 0.73021358252 0.71557509899
          0.74180620909 0.74837106466 0.71225786209 0.69130295515 0.74242377281 0.77936899662
          0.76192635298 0.7496727109 0.73425894976 0.71206521988 0.79057705402 0.71512812376
          0.68986552954 0.68143504858 0.77799332142 0.70952278376 0.73507714272 0.7416844964
          0.70499992371 0.68432962894 0.73476105928 0.77449470758 0.75547766685 0.74311059713
          0.72665882111 0.70349675417 0.78501242399 0.70560133457 0.67914831638 0.6722432971
          0.77096033096 0.6562743783 0.67747843266 0.68239825964 0.65222668648 0.63521778584
          0.6774546504 0.71210551262 0.69503617287 0.68456661701 0.67044919729 0.65015876293
          0.72007602453 0.65153503418 0.62900054455 0.6240440011 0.70711874962 0.56236237288
          0.57623767853 0.57889515162 0.55994850397 0.54932755232 0.57700842619 0.60080909729
          0.58854877949 0.58149272203 0.57197928429 0.55826884508 0.60595393181 0.55834656954
          0.54321068525 0.5413518548 0.59592884779 0.42810481787 0.43682321906 0.43852713704
          0.42617604136 0.41965514421 0.43678960204 0.45370787382 0.44506335258 0.43928226829
          0.43395975232 0.42439594865 0.4571389854 0.42328852415 0.41388869286 0.41376361251
          0.4499951601 0.25177526474 0.25735151768 0.25744566321 0.25111332536 0.24762250483
          0.25747361779 0.26900658011 0.26307678223 0.25928732753 0.25583925843 0.24975433946
          0.27094450593 0.24818180501 0.24250900745 0.24338592589 0.26543718576 0.035523932427
          0.038659606129 0.037929300219 0.035064995289 0.033393882215 0.038024324924 0.046235669404
          0.042161609977 0.038332480937 0.037626132369 0.032990884036 0.047815926373 0.030339555815
          0.027692245319 0.030257774517 0.043239735067 -0.22964578867 -0.22731301188 -0.22789669037
          -0.22961083055 -0.22988238931 -0.22745317221 -0.22077608109 -0.22422522306 -0.22722551227
          -0.22791142762 -0.23119489849 -0.21985590458 -0.233635813 -0.23478607833 -0.23203441501
          -0.22371356189 -0.54230189323 -0.54212766886 -0.54337573051 -0.54136151075 -0.5402110219
          -0.54196065664 -0.54075598717 -0.54146069288 -0.54273110628 -0.54176151752 -0.54157847166
          -0.54058414698 -0.5429957509 -0.54144972563 -0.54001706839 -0.54212713242 -0.87923061848
          -0.8805847168 -0.88155162334 -0.87846547365 -0.87689828873 -0.8795542717 -0.88124531507
          -0.88097816706 -0.88001018763 -0.87948828936 -0.87842184305 -0.88231152296 -0.87880432606
          -0.8775935173 -0.87633442879 -0.88218522072 -1.2228291035 -1.2242149115 -1.2243522406
          -1.2231167555 -1.2222098112 -1.2243295908 -1.2257572412 -1.2250446081 -1.2242825031
          -1.2237526178 -1.2232800722 -1.2266848087 -1.2236521244 -1.2228463888 -1.2217956781
          -1.2261892557 -1.5661076307 -1.5668619871 -1.5675251484 -1.5658621788 -1.5647741556
          -1.5672229528 -1.5684973001 -1.5679268837 -1.5675823689 -1.5669233799 -1.5661313534
          -1.5690124035 -1.5663155317 -1.5651150942 -1.5644500256 -1.568606019 0.0028862655163
          0.027372978628 0.017840772867 0.018402619287 0.0013477734756 0.051114555448 0.071056179702
          0.048278477043 0.06699848175 0.035950709134 0.032912049443 0.060907568783 0.050700135529
          0.029514677823 0.011131155305 0.040490336716 0.013186014257 0.036955155432 0.035869270563
          -0.0072297416627 -0.0092629278079 0.017195172608 -0.010704420507 0.0090019386262 0.016123276204
          0.01949978061 -0.01399443578 -0.017700469121 -0.018768887967 0.0079605430365 -0.01200023666
          0.0021516089328 -0.0091621121392 0.015224868432 0.021745879203 0.020503783599 -0.017912581563
          -0.026500996202 -0.021540718153 0.014598179609 -0.020130969584 0.013754180633 -0.016037287191
          0.0088486671448 -0.011285846122 0.027781024575 -0.027324853465 0.0094598634169 -0.011392854154
          0.0047454512678 -0.0056466874667 0.0014889787417 -0.0055154184811 0.027189856395 -0.023851919919
          -0.024382766336 -0.042107600719 -0.047255501151 -0.022382656112 -0.0074800760485 -0.042575675994
          -0.065484277904 -0.055237401277 -0.047079175711 -0.037258092314 -0.02277296409 -0.073624648154
          -0.025481691584 -0.0088436678052 -0.0018948091893 -0.066560335457 -0.0097543839365 -0.038036499172
          -0.046527411789 -0.0065767667256 0.016956115142 -0.037661835551 -0.072787337005 -0.057718932629
          -0.044262684882 -0.029480541125 -0.0075834123418 -0.086139768362 -0.01222991012 0.013433671556
          0.024625496939 -0.07657533139 0.039200175554 0.00049733096967 -0.01140349824 0.044095110148
          0.077153757215 0.0013887686655 -0.046688236296 -0.025841072202 -0.0081375697628 0.012630222365
          0.042982690036 -0.063955366611 0.036031767726 0.071719810367 0.088279679418 -0.051032856107
          0.11907169223 0.072536341846 0.057427879423 0.1269775331 0.16738067567 0.073224291205
          0.012255215086 0.03978478536 0.059455119073 0.087658882141 0.12576517463 -0.0080598704517
          0.11616421491 0.16300986707 0.18326568604 0.0084885004908 0.20878058672 0.15283766389
          0.13339595497 0.22014394403 0.26943805814 0.15361647308 0.077398218215 0.11253665388
          0.13577325642 0.17183987796 0.21948479116 0.053470168263 0.20702207088 0.26611253619
          0.29083368182 0.07434977591 0.29002356529 0.22117289901 0.19691757858 0.30492272973
          0.36540579796 0.22241534293 0.12768036127 0.17170768976 0.19976119697 0.24481835961
          0.30394643545 0.098536722362 0.28824305534 0.36181011796 0.39237377048 0.12369877845
          0.34256896377 0.25939244032 0.22961331904 0.36077523232 0.43485978246 0.26039674878
          0.14511007071 0.19846606255 0.23268729448 0.28787949681 0.35978269577 0.10969755054
          0.34118196368 0.43119174242 0.46827167273 0.14083151519 0.35559728742 0.26053270698
          0.22715125978 0.37619763613 0.45999035239 0.2613645792 0.12961252034 0.19100137055
          0.23009987175 0.29308065772 0.3754901886 0.089329719543 0.35490888357 0.45780172944
          0.49913626909 0.12567535043 0.3370808661 0.23297293484 0.1966843307 0.35942208767
          0.45142483711 0.23399686813 0.089056871831 0.15638443828 0.19941329956 0.2684110105
          0.35930922627 0.045234598219 0.33706080914 0.45007374883 0.49439200759 0.085742324591
          0.30043715239 0.18678729236 0.14707548916 0.32526874542 0.42501810193 0.18811267614
          0.028228091076 0.10264110565 0.1503456533 0.22569924593 0.32533705235 -0.019952302799
          0.30153739452 0.42484351993 0.47259950638 0.025310618803 0.24193136394 0.11611241847
          0.072864927351 0.26955288649 0.38007774949 0.11708023399 -0.062644422054 0.022042980418
          0.074051104486 0.15909527242 0.27016305923 -0.11499111354 0.24396908283 0.38153102994
          0.4334860146 -0.063037164509 0.16950510442 0.028950508684 -0.018184032291 0.19893689454
          0.32174095511 0.02906727232 -0.17072609067 -0.07608833909 -0.018413674086 0.075991630554
          0.19972287118 -0.22785097361 0.17104312778 0.32363578677 0.38122946024 -0.16941599548
          0.087254025042 -0.062982238829 -0.11260901392 0.11873786896 0.24957479537 -0.063443034887
          -0.27866894007 -0.17608353496 -0.11471714079 -0.012821226381 0.11947452277 -0.33959296346
          0.08852724731 0.25210601091 0.31295469403 -0.27563869953 0.0066464482807 -0.15131156147
          -0.20323136449 0.039619583637 0.17738507688 -0.15180438757 -0.37766700983 -0.27013522387
          -0.2055400759 -0.098561413586 0.040494635701 -0.44175824523 0.0084149651229 0.1804804951
          0.24435789883 -0.37424197793 -0.067820675671 -0.23176363111 -0.2858133316 -0.033337511122
          0.10942516476 -0.23163500428 -0.46554651856 -0.35459092259 -0.2867680788 -0.17687472701
          -0.032422877848 -0.53245687485 -0.065100990236 0.11238613725 0.17888686061 -0.46306312084
          -0.1345397383 -0.30304709077 -0.35869732499 -0.099869579077 0.046862285584 -0.30327776074
          -0.54177337885 -0.42878681421 -0.35934174061 -0.24668885767 -0.099562034011 -0.61096608639
          -0.13383194804 0.04807889834 0.11692266911 -0.54063385725 -0.19718466699 -0.36602386832
          -0.42213121057 -0.16250739992 -0.015036456287 -0.36600792408 -0.60468608141 -0.49195021391
          -0.42229306698 -0.30952304602 -0.16218854487 -0.67440062761 -0.19679823518 -0.01473862119
          0.054562013596 -0.60449504852 -0.25796955824 -0.42805451155 -0.48474064469 -0.22318802774
          -0.074596427381 -0.42807278037 -0.66774761677 -0.55469846725 -0.48450991511 -0.37151345611
          -0.22336404026 -0.73792999983 -0.25828999281 -0.075041361153 -0.0047942595556 -0.66809129715
          -0.0011015606578 0.015664244071 0.016545308754 0.0028183374088 -0.010554641485 0.021193055436
          0.036749895662 0.027726190165 0.025645643473 0.014907882549 0.0071104685776 0.04153444618
          0.012835910544 -1.1107367754e-05 -0.0094259632751 0.034166529775 0.008437181823 0.028506981209
          0.025243934244 -0.0078411996365 -0.010903524235 0.0088899163529 -0.013851070777 -0.029219511896
          -0.027806051075 -0.02705841139 -0.028753025457 -0.030298158526 -0.030093362555 -0.032817214727
          -0.034694883972 -0.036250710487 -0.041321069002 -0.039512034506 -0.043429479003 -0.033342838287
          -0.0036512752995 -0.0040908223018 -0.004341723863 -0.0022246462759 -0.003281213576 -0.0037087849341
          -0.0025395001285 -6.1579004978e-05 -0.0018109227531 0.00036451968481 -0.0026364107616 -0.00087552919285
          -0.0035185033921 0.035705111921 0.035429961979 0.035241156816 0.035854469985 0.035936716944
          0.034261446446 0.03636829555 0.037692524493 0.03677701205 0.039346579462 0.035727996379
          0.037814106792 0.034001786262 0.052173223346 0.051253709942 0.051241721958 0.052826043218
          0.053592216223 0.051628161222 0.054893106222 0.056200642139 0.055976409465 0.058998897672
          0.055227104574 0.058186113834 0.052411194891 0.024449273944 0.023593306541 0.025864573196
          0.029957970604 0.027970889583 0.027963349596 0.030494676903 0.033286593854 0.032711945474
          0.035002566874 0.034880392253 0.035779360682 0.032039538026 2.3270486232e-11 -5.0308818222e-10
          3.9609902164e-11 3.5323269917e-12 3.3132597685e-13 -3.9324030143e-12 2.2787821977e-12 2.4473226722e-13
          -7.1588114397e-14 0 0 0 2.2750491812e-13
        </DataArray>
        <DataArray type="Float32" Name="uy" format="ascii" RangeMin="-0.94570970535" RangeMax="0.99207407236">
          0.16099745035 0.16098581254 0.16081021726 0.13654184341 0.11834233254 0.11882458627
          0.12022458762 0.16003619134 0.15944202244 0.15112671256 0.13652135432 0.12006083131
          0.11920479685 0.12602260709 0.16123150289 0.15184015036 0.11570303887 0.12417112291
          0.15490409732 0.14128826559 0.11905637383 0.15262529254 0.11804959178 0.11553411186
          0.14064793289 0.15660969913 0.13592062891 -0.18321478367 -0.17299853265 -0.18183171749
          -0.084720514715 -0.07419629395 -0.083791092038 -0.17058512568 -0.071823738515 -0.17654810846
          -0.078766793013 -0.15597261488 -0.15278363228 -0.16337291896 -0.054527200758 -0.051091633737
          -0.063854150474 -0.14763407409 -0.04408827424 -0.1644179225 -0.064661853015 -0.15974715352
          -0.059891436249 -0.16193662584 -0.063042528927 -0.14831236005 -0.045273050666 -0.15506698191
          -0.054571326822 -0.16577257216 -0.067529954016 -0.17356230319 -0.075664579868 -0.27059429884
          -0.26155364513 -0.26986265182 -0.25886920094 -0.26388081908 -0.24622809887 -0.24289022386
          -0.25265604258 -0.2392218411 -0.25360867381 -0.24934735894 -0.25083976984 -0.23973612487
          -0.24431359768 -0.25316867232 -0.26179808378 -0.32939696312 -0.32066133618 -0.32861554623
          -0.31838086247 -0.32238465548 -0.30654370785 -0.30230379105 -0.3118622601 -0.30023893714
          -0.31356441975 -0.30959069729 -0.30907076597 -0.30121532083 -0.30525025725 -0.31285303831
          -0.32013115287 -0.34279832244 -0.3326690793 -0.34225508571 -0.32971712947 -0.33414289355
          -0.31645038724 -0.31201693416 -0.32263252139 -0.30953449011 -0.32421833277 -0.31966161728
          -0.31967592239 -0.31049591303 -0.31448930502 -0.32287114859 -0.33206945658 -0.29938539863
          -0.28363412619 -0.29923784733 -0.27769473195 -0.2858709991 -0.2548251152 -0.24932926893
          -0.26784688234 -0.24135024846 -0.26889747381 -0.25993767381 -0.26534715295 -0.24178673327
          -0.25019550323 -0.26635885239 -0.28485018015 -0.18941877782 -0.16767066717 -0.18961131573
          -0.15971395373 -0.17155951262 -0.12649600208 -0.11948732287 -0.1456041038 -0.10699610412
          -0.14670474827 -0.13467296958 -0.14332216978 -0.10806333274 -0.12213775516 -0.14567475021
          -0.17120660841 -0.022447302938 0.00049295829376 -0.023668682203 0.0098699303344 -0.0038050641306
          0.047129489481 0.054452508688 0.024736791849 0.070501111448 0.024072932079 0.037714056671
          0.025614693761 0.068609781563 0.051143031567 0.023977804929 -0.0049271392636 0.16448006034
          0.18855658174 0.1623416096 0.19843204319 0.18354588747 0.24056915939 0.24794730544
          0.21430693567 0.26772093773 0.21426856518 0.22915779054 0.2139185518 0.26514384151
          0.2431474179 0.21245233715 0.18070268631 0.33324494958 0.35741862655 0.3307928741
          0.36825209856 0.35228690505 0.41223391891 0.41878730059 0.3835965991 0.44108235836
          0.38463234901 0.40061584115 0.38171496987 0.43867710233 0.41494190693 0.38225415349
          0.34789916873 0.45491802692 0.47516310215 0.45315587521 0.48361843824 0.46938991547
          0.52150225639 0.52674233913 0.49685877562 0.54689538479 0.49758124352 0.51097166538
          0.49441251159 0.54424011707 0.52284449339 0.49410122633 0.46669876575 0.51284641027
          0.52575910091 0.51108515263 0.53072321415 0.52146738768 0.55680882931 0.56062370539
          0.54004818201 0.57455068827 0.54054993391 0.54892462492 0.53799086809 0.57182741165
          0.55565261841 0.53639245033 0.51974260807 0.49913874269 0.50732183456 0.49781611562
          0.51076287031 0.50472533703 0.52838337421 0.53075939417 0.51651734114 0.54066264629
          0.51732778549 0.52268320322 0.51493829489 0.53826779127 0.52694684267 0.51399856806
          0.50243121386 0.42288643122 0.42743438482 0.42162531614 0.42959618568 0.4255464673
          0.44115203619 0.44290006161 0.43341505527 0.44976845384 0.43360763788 0.43700766563
          0.43159672618 0.44734612107 0.43865650892 0.43019521236 0.42351987958 0.28888401389
          0.29115599394 0.2869425416 0.29258096218 0.29010623693 0.30039280653 0.30166104436
          0.29464936256 0.30660167336 0.29543399811 0.29703366756 0.29320290685 0.30386939645
          0.29728865623 0.29223102331 0.28756961226 0.098987340927 0.099380254745 0.097118601203
          0.10063111037 0.099392838776 0.10560423136 0.10697306693 0.10145253688 0.11071398854
          0.10187774897 0.10261768103 0.1003273651 0.10783632845 0.10218678415 0.099459707737
          0.096493639052 -0.13621647656 -0.13725529611 -0.13766686618 -0.137106359 -0.13667307794
          -0.13706146181 -0.13650947809 -0.13750396669 -0.13629387319 -0.13729895651 -0.13788960874
          -0.13851071894 -0.13783621788 -0.13936340809 -0.13861228526 -0.13914842904 -0.3985838294
          -0.40053027868 -0.39893990755 -0.40153309703 -0.40040352941 -0.40353602171 -0.40356889367
          -0.40187293291 -0.40453726053 -0.40228837729 -0.40354001522 -0.4019023478 -0.40491330624
          -0.40480595827 -0.40314725041 -0.40020114183 -0.66818606853 -0.66936379671 -0.6677415967
          -0.67011117935 -0.66919386387 -0.67230463028 -0.67282551527 -0.6710370183 -0.67341256142
          -0.67104369402 -0.67183983326 -0.67109185457 -0.67332726717 -0.67251002789 -0.67083203793
          -0.66886723042 -0.93999713659 -0.94136375189 -0.94019472599 -0.94176548719 -0.9410585165
          -0.94440919161 -0.94499212503 -0.94288253784 -0.94570970535 -0.94274437428 -0.94348931313
          -0.94309979677 -0.94568312168 -0.94455993176 -0.94278234243 -0.94096434116 0.053024362773
          0.048985354602 0.054716095328 0.045816037804 0.047738455236 0.042521752417 0.042306382209
          0.045691326261 0.039971414953 0.045010380447 0.041808865964 0.045824941248 0.038649611175
          0.038489304483 0.041461352259 0.050954464823 0.11503732204 0.11349394917 0.11067894101
          0.11846479774 0.11575412005 0.11139526218 0.11379789561 0.093105390668 0.085727371275
          0.094151064754 -0.10653014481 -0.10191103071 -0.1068527475 0.082668311894 -0.09992890805
          0.085726268589 -0.10382038355 0.071942768991 0.066890478134 0.077258504927 -0.091136448085
          -0.090761609375 -0.097181454301 0.065070331097 -0.08497839421 0.078654229641 -0.096625164151
          0.074842996895 -0.093533076346 0.074951767921 -0.098264560103 0.066847063601 -0.085377767682
          0.070642337203 -0.090862162411 0.076864555478 -0.097897462547 0.08663700521 -0.10431138426
          -0.34023079276 -0.323710531 -0.34110710025 -0.31722381711 -0.32696416974 -0.2896232605
          -0.28435409069 -0.30612486601 -0.27267226577 -0.30663105845 -0.29710331559 -0.30545642972
          -0.27407559752 -0.28689539433 -0.30691704154 -0.32755059004 -0.55338096619 -0.52776622772
          -0.55504268408 -0.51688373089 -0.53113764524 -0.47543668747 -0.46626254916 -0.50047683716
          -0.4491955936 -0.50126558542 -0.48582372069 -0.49842086434 -0.45109504461 -0.47001287341
          -0.49953001738 -0.53325331211 -0.71244573593 -0.67614859343 -0.71383458376 -0.66097646952
          -0.68147158623 -0.60430502892 -0.59353011847 -0.63929212093 -0.5688483119 -0.63977771997
          -0.61735588312 -0.6374514699 -0.56989514828 -0.59486907721 -0.63642287254 -0.6841366291
          -0.81047266722 -0.76458865404 -0.81137210131 -0.74618935585 -0.77303934097 -0.67382067442
          -0.66141688824 -0.71803796291 -0.62911319733 -0.7186743021 -0.69028198719 -0.71675902605
          -0.62911337614 -0.66156327724 -0.71559482813 -0.77444702387 -0.85739541054 -0.80025517941
          -0.8570497632 -0.7778955102 -0.81230735779 -0.68782764673 -0.67385548353 -0.7435285449
          -0.63236433268 -0.74369806051 -0.70806950331 -0.74227052927 -0.63140624762 -0.67210686207
          -0.74074500799 -0.81223732233 -0.86548769474 -0.79368209839 -0.86446595192 -0.76658183336
          -0.81023168564 -0.65452629328 -0.63816946745 -0.72321307659 -0.5866985321 -0.72351378202
          -0.68002206087 -0.72160995007 -0.5854139924 -0.63591551781 -0.72152125835 -0.80820447206
          -0.83962327242 -0.75178194046 -0.83762979507 -0.71943980455 -0.77324920893 -0.58118158579
          -0.56088656187 -0.66536456347 -0.4978466332 -0.66615068913 -0.61298716068 -0.66354352236
          -0.49623477459 -0.55896520615 -0.66482782364 -0.76946425438 -0.76200604439 -0.66214358807
          -0.76003348827 -0.62554860115 -0.68656337261 -0.46726551652 -0.44383507967 -0.56336957216
          -0.37123760581 -0.56458425522 -0.50414031744 -0.56143450737 -0.36999580264 -0.44258093834
          -0.56372618675 -0.68255585432 -0.63919228315 -0.53039097786 -0.63729268312 -0.49038216472
          -0.5570833683 -0.31700277328 -0.29133704305 -0.42262068391 -0.21125723422 -0.4236035049
          -0.35759997368 -0.42127469182 -0.21028935909 -0.29047480226 -0.42343217134 -0.55346125364
          -0.4914970696 -0.37277448177 -0.49007064104 -0.32873865962 -0.40201798081 -0.13884885609
          -0.1109456867 -0.25496935844 -0.022564103827 -0.25579237938 -0.18352013826 -0.25415357947
          -0.022052789107 -0.11075229198 -0.25599101186 -0.39891603589 -0.33240035176 -0.20169642568
          -0.33162119985 -0.15208737552 -0.23319326341 0.059537313879 0.090247906744 -0.071438759565
          0.19011187553 -0.070964358747 0.0095948763192 -0.070991709828 0.19051383436 0.090570546687
          -0.071191392839 -0.23196694255 -0.17799660563 -0.033410165459 -0.17760688066 0.021997855976
          -0.068056501448 0.25616976619 0.28913900256 0.11087021977 0.40081965923 0.11133411527
          0.20122653246 0.1098240912 0.40182563663 0.29074263573 0.11096943915 -0.067954048514
          -0.036850754172 0.11764420569 -0.037295076996 0.17668898404 0.080639757216 0.42869699001
          0.46472418308 0.27249592543 0.5849763155 0.27284139395 0.36887905002 0.27131274343
          0.58467775583 0.46432709694 0.27175694704 0.079868063331 0.078032582998 0.24031797051
          0.077589854598 0.30244243145 0.20118330419 0.56744682789 0.60515749454 0.40279060602
          0.73178315163 0.40354344249 0.50449228287 0.40144357085 0.73159688711 0.60502821207
          0.40206941962 0.20035746694 0.15945738554 0.32756227255 0.15924975276 0.39205405116
          0.28725075722 0.66530168056 0.70436125994 0.49540284276 0.8350751996 0.49615028501
          0.60073822737 0.49444577098 0.83493053913 0.70472866297 0.49550232291 0.28667068481
          0.20994250476 0.38249835372 0.20997044444 0.44810345769 0.34123718739 0.7283141613
          0.76909649372 0.5551379323 0.9019511342 0.55511218309 0.66200941801 0.55462062359
          0.90150368214 0.76831322908 0.55419450998 0.34128108621 0.2541397512 0.42768648267
          0.2538934052 0.49377667904 0.38669502735 0.77485322952 0.81576162577 0.60105460882
          0.94830733538 0.60129404068 0.70841556787 0.60115194321 0.9483101964 0.81544220448
          0.60116457939 0.38627034426 0.29433712363 0.46896156669 0.29439410567 0.53581374884
          0.42794957757 0.81794214249 0.85909426212 0.64344745874 0.99198842049 0.64385539293
          0.75161027908 0.64339596033 0.99207407236 0.8591350913 0.64380264282 0.4274571836
          0.23209297657 0.20474238694 0.23267351091 0.1954446584 0.2107860297 0.15708640218
          0.14713722467 0.17838843167 0.13410004973 0.18022479117 0.1671808213 0.17576789856
          0.13665558398 0.15271681547 0.18006627262 0.20957568288 0.14840108156 0.14436987042
          0.13915392756 0.15647040308 0.15291361511 0.1412332505 0.14867793024 0.086978472769
          0.089656069875 0.092093594372 0.095972247422 0.090001903474 0.084279328585 0.090416148305
          0.098259709775 0.090558223426 0.096668839455 0.085031740367 0.091447666287 0.082856610417
          0.023761270568 0.023160222918 0.022258443758 0.020966576412 0.022935682908 0.023512901738
          0.022931940854 0.021230923012 0.023017000407 0.022234486416 0.023752206936 0.023278655484
          0.02337455377 -0.027868067846 -0.028371397406 -0.028871379793 -0.030494885519 -0.028871545568
          -0.027916528285 -0.028591951355 -0.030767865479 -0.02779340744 -0.028298474848 -0.024860003963
          -0.025377960876 -0.026171309873 -0.038546070457 -0.039735808969 -0.041720222682 -0.044172775
          -0.039988636971 -0.036928553134 -0.039513256401 -0.044387228787 -0.038974735886 -0.041382439435
          -0.034371528774 -0.03721505031 -0.035069711506 -0.015013919212 -0.019192574546 -0.022870322689
          -0.024185763672 -0.018539074808 -0.012839940377 -0.018370710313 -0.023279163986 -0.018468398601
          -0.021316858009 -0.016067562625 -0.018921276554 -0.013646993786 -1.0804447614e-11 2.125247027e-11
          9.6066913105e-12 -3.7696516915e-12 1.0353546145e-11 3.3276185626e-12 2.0307902495e-12 2.660737841e-14
          -3.2413037098e-14 0 0 0 -4.1260384324e-13
        </DataArray>
        <DataArray type="Float32" Name="uz" format="ascii" RangeMin="-0.42049446702" RangeMax="0.21057614684">
          0.049603182822 0.049995929003 0.048874635249 0.029285663739 0.0083631779999 0.0047623049468
          0.007975641638 0.048229105771 0.056533336639 0.038778226823 0.02692095004 0.010143938474
          0.00806527026 0.015465417877 0.049689427018 0.042144618928 -0.0013869677205 0.017444202676
          0.052979510278 0.029204245657 0.012053858489 0.056385956705 0.016368471086 -0.00060025980929
          0.028629129753 0.045402694494 0.028166787699 -0.17494261265 -0.13074931502 -0.14137101173
          -0.16370923817 -0.1211180985 -0.13035513461 -0.15322615206 -0.143790856 -0.18696050346
          -0.17673148215 -0.091713815928 -0.052356779575 -0.09269849956 -0.083129458129 -0.043749619275
          -0.083652168512 -0.06473068893 -0.056357976049 -0.11954361945 -0.11044733226 -0.12889137864
          -0.12004355341 -0.06544829905 -0.056184142828 -0.097295887768 -0.088938742876 -0.1386359334
          -0.13022710383 -0.17277731001 -0.16392195225 -0.099457032979 -0.089725054801 -0.18543364108
          -0.14280104637 -0.15907609463 -0.15777848661 -0.18940263987 -0.097948856652 -0.065232485533
          -0.10612546653 -0.068399325013 -0.12679588795 -0.12961742282 -0.084939956665 -0.09400434047
          -0.13239966333 -0.16882705688 -0.12059380114 -0.1891913116 -0.15574231744 -0.1771684438
          -0.15714377165 -0.18079945445 -0.1072435379 -0.088737972081 -0.12508891523 -0.079633653164
          -0.13440017402 -0.12709245086 -0.11522617191 -0.0917282179 -0.12012524158 -0.1542878896
          -0.14912877977 -0.18608236313 -0.16768302023 -0.19441105425 -0.15121273696 -0.16128790379
          -0.1198002249 -0.12150630355 -0.14817303419 -0.096886500716 -0.14175505936 -0.12176305056
          -0.15398517251 -0.089355297387 -0.10136537999 -0.12885396183 -0.18216240406 -0.17805397511
          -0.17751030624 -0.20907379687 -0.14110845327 -0.13558240235 -0.1309043467 -0.1573189795
          -0.17117783427 -0.11456609517 -0.14659462869 -0.11232890934 -0.19607725739 -0.084040999413
          -0.077212832868 -0.097063794732 -0.21592365205 -0.16796268523 -0.18417970836 -0.2186113745
          -0.13058996201 -0.11059215665 -0.14151723683 -0.19022381306 -0.19109281898 -0.13252539933
          -0.15024116635 -0.10431993753 -0.23271088302 -0.081885695457 -0.057326801121 -0.068512916565
          -0.24329259992 -0.15417703986 -0.18489941955 -0.2172177434 -0.12307376415 -0.091695427895
          -0.15406405926 -0.21589595079 -0.20414038002 -0.15329228342 -0.15411940217 -0.10425490141
          -0.2551189363 -0.090948455036 -0.052591755986 -0.053208462894 -0.25544419885 -0.13453394175
          -0.17644803226 -0.19717730582 -0.11881523579 -0.080215215683 -0.16753782332 -0.23220875859
          -0.20643121004 -0.17838795483 -0.15655326843 -0.11358339339 -0.25743162632 -0.11626517028
          -0.069086283445 -0.055612981319 -0.24406370521 -0.11647502333 -0.16176223755 -0.16564819217
          -0.1208795011 -0.083043076098 -0.17875750363 -0.23281884193 -0.19745256007 -0.19992619753
          -0.15813241899 -0.13163520396 -0.23777358234 -0.15104927123 -0.10471770167 -0.07866743207
          -0.21196426451 -0.10528801382 -0.14673051238 -0.13264502585 -0.13013063371 -0.099516004324
          -0.18761496246 -0.2210200876 -0.18237607181 -0.21484093368 -0.1604872793 -0.1557726711
          -0.20441298187 -0.18822614849 -0.15101712942 -0.11717710644 -0.17078012228 -0.098519422114
          -0.13317558169 -0.10241471231 -0.14221304655 -0.12049946934 -0.19662438333 -0.20704093575