<VTKFile type="UnstructuredGrid" version="1.0" byte_order="LittleEndian" header_type="UInt64">
  <UnstructuredGrid>
    <Piece NumberOfPoints="791" NumberOfCells="973">
      <PointData>
        <DataArray type="Float32" Name="ux" format="ascii" RangeMin="-0.012186438777" RangeMax="0.012585631572">
          -0.0030382331461 0.0020917148795 -0.0047597796656 -0.0037627881393 -0.003037270857 -0.0047655538656
          0.0020954867359 0.0034896780271 0.011082312092 0.0087344944477 0.004207982216 0.011073371395
          0.0034892610274 0.00872967951 -0.010681857355 -0.0082771396264 -0.010675927624 -0.0082646301016
          0.0063851666637 0.011020417325 0.0063773691654 0.012585631572 0.01257310342 -0.012176847085
          -0.010535986163 -0.012186438777 0.00023124413565 -0.0025630360469 0.0014138149563 0.0026929550804
          -0.002504483331 0.0014602247393 0.0027244153898 -0.0035001575015 -0.0034701004624 -0.0069522284903
          -0.0069312267005 0.0014963439899 0.0075770239346 0.0045571736991 0.0015601651976 0.0077460054308
          0.004640114028 0.0029972000048 0.0031136553735 6.6795349994e-05 0.00011103058205 -0.0036334334873
          -0.0036322553642 0.0090491985902 0.0091709848493 -0.0028607090935 -0.0028783655725 -0.0074506620876
          -0.0075330003165 -0.0089157205075 -0.0089538330212 0.0070923073217 0.0071604270488 -0.0026173528749
          0.0013749627396 0.002659394173 -0.0035567118321 -0.0070283440873 0.0014541341225 0.0075411531143
          0.0045272004791 0.0029521966353 2.2946096578e-05 -0.0036852434278 0.0090320017189 -0.0029025117401
          -0.0075011784211 -0.0089861759916 0.007080138661 -0.0026736357249 0.0013341440354 0.0026286181528
          -0.0036041180138 -0.0070884772576 0.0014054250205 0.0074690617621 0.0044794734567 0.00289269723
          -2.1057809136e-05 -0.0037198464852 0.0089792171493 -0.0029315256979 -0.0075165620074 -0.0090210847557
          0.0070521696471 -0.0027255103923 0.0012944141636 0.0025969429407 -0.0036493467633 -0.0071462425403
          0.0013591642492 0.0074040181935 0.0044346372597 0.0028368507046 -6.3165360189e-05 -0.0037545943633
          0.0089327497408 -0.0029600313865 -0.0075352508575 -0.0090590910986 0.0070254351012 -0.0027731251903
          0.0012566408841 0.0025665119756 -0.0036894257646 -0.0071963043883 0.0013145102421 0.007334980648
          0.004389278125 0.0027813126799 -0.00010265910532 -0.0037838700227 0.0088810250163 -0.0029837731272
          -0.0075453738682 -0.0090868668631 0.0069957436062 -0.0028151527513 0.0012260572985 0.002543395618
          -0.003723990405 -0.0072420667857 0.0012773132185 0.0072764325887 0.0043523279019 0.0027340599336
          -0.00013507994299 -0.0038076881319 0.0088397860527 -0.0030014684889 -0.0075510279275 -0.0091109536588
          0.0069755297154 -0.0028509686235 0.0012040054426 0.002530073747 -0.0037529969122 -0.0072843516245
          0.0012496672571 0.0072309537791 0.0043265740387 0.0026975325309 -0.00015967052605 -0.0038256451953
          0.0088123809546 -0.0030126478523 -0.0075536356308 -0.0091331908479 0.0069675934501 -0.0028670590837
          0.0011998105329 0.0025338151027 -0.0037627825513 -0.0073060765862 0.0012388905743 0.0072012371384
          0.0043169842102 0.0026775558945 -0.00016656359367 -0.0038253986277 0.0088000036776 -0.0030063327868
          -0.0075376192108 -0.009135292843 0.0069750617258 -0.0028556501493 0.0012223988306 0.0025639105588
          -0.0037450995296 -0.0072992010973 0.0012554927962 0.0071998345666 0.0043347883038 0.0026850998402
          -0.00014609508798 -0.0037980959751 0.0088151320815 -0.0029734554701 -0.0074950531125 -0.009109614417
          0.0070088743232 -0.0028141101357 0.0012761311373 0.0026249715593 -0.0036977739073 -0.0072633754462
          0.0013034340227 0.007232983131 0.0043849628419 0.0027253886219 -9.4962466392e-05 -0.0037416282576
          0.0088644195348 -0.0029115467332 -0.0074257166125 -0.0090567823499 0.0070749847218 -0.0027413500939
          0.0013614207273 0.0027172465343 -0.0036200161558 -0.0071974392049 0.0013835681602 0.0073017175309
          0.0044682472944 0.0027988471556 -1.234516003e-05 -0.0036553263199 0.0089484108612 -0.002819981426
          -0.0073284329847 -0.0089754899964 0.0071736453101 -0.0026404513046 0.0014730211115 0.002834741259
          -0.0035139154643 -0.0071014137939 0.0014905243879 0.0073960837908 0.0045769680291 0.0028991606086
          9.6927025879e-05 -0.0035416667815 0.0090562645346 -0.0027015947271 -0.0072037326172 -0.0088645908982
          0.0072957025841 -0.0025100735947 0.0016115943436 0.0029787789099 -0.0033792327158 -0.0069747306406
          0.0016249939799 0.0075185191818 0.0047124465927 0.0030276658945 0.00023384569795 -0.0034001269378
          0.0091902976856 -0.002556018997 -0.007051887922 -0.0087247863412 0.0074423588812 -0.0023490036838
          0.00177951355 0.0031510542613 -0.0032141387928 -0.0068161063828 0.0017896096688 0.007672125008
          0.0048775500618 0.0031868992373 0.0004005607625 -0.0032285528723 0.0093538695946 -0.0023810258135
          -0.0068709291518 -0.0085545694456 0.0076172519475 -0.0021561717149 0.0019793296233 0.0033551144879
          -0.0030182229821 -0.0066271303222 0.0019859327003 0.0078607341275 0.0050756274723 0.0033785097767
          0.00059887277894 -0.0030282067601 0.0095517300069 -0.0021779038943 -0.006663590204 -0.0083561139181
          0.0078244237229 -0.0019334227545 0.0022092498839 0.0035883190576 -0.0027928273194 -0.0064078951254
          0.0022131248843 0.0080836052075 0.0053051798604 0.00360248168 0.00082728842972 -0.0027987377252
          0.0097828796133 -0.001946534263 -0.0064300638624 -0.0081298658624 0.0080619379878 -0.0016980511136
          0.0024503511377 0.0038322918117 -0.0025554755703 -0.0061754826456 0.0024517143611 0.0083194924518
          0.0055461334996 0.0038382892963 0.0010667195311 -0.0025585447438 0.010025502183 -0.0017050235765
          -0.0061861258 -0.0078917546198 0.0083093428984 -0.0014603788732 0.0026909487788 0.0040741879493
          -0.0023161238059 -0.0059386910871 0.002691494301 0.008556291461 0.0057863304392 0.0040762685239
          0.0013070928399 -0.0023171093781 0.010265759192 -0.0014622721355 -0.0059419441968 -0.0076513080858
          0.0085531063378 -0.0012233756715 0.0029286711942 0.0043126861565 -0.0020787455142 -0.0057022958063
          0.002929287497 0.0087927458808 0.0060240700841 0.0043136104941 0.0015450061765 -0.0020788104739
          0.010503220372 -0.0012233621674 -0.0057029356249 -0.0074135055766 0.008791860193 -0.0030234712176
          0.0017689586384 0.0033923792653 -0.0040156273171 -0.0081524662673 0.0017937306548 0.0087519073859
          0.0053719980642 0.0034866912756 0.00016583585239 -0.0040902229957 0.01058207266 -0.0031790302601
          -0.0084498701617 -0.01026132796 0.008513238281 0.0020959263202 0.010211776011 0.003980814945
          0.00019507996331 -0.0048285601661 -0.0036496268585 -0.0098515311256 -0.0025439704768 0.0014409292489
          0.0027125100605 -0.0026220052969 0.0013895712327 0.0026804609224 -0.0035139957909 -0.003567884909
          -0.0069938614033 -0.007050389424 0.0015414854279 0.0077586160041 0.0046373577788 0.0014722114429
          0.0076047619805 0.0045595187694 0.0031028632075 0.0029861857183 8.5083665908e-05 3.0354553019e-05
          -0.003677042434 -0.0037020076998 0.0091912206262 0.0090902708471 -0.0029192427173 -0.0029216848779
          -0.0075978566892 -0.0075517436489 -0.0090265441686 -0.0090304501355 0.0071711661294 0.0071178842336
          -0.0026829356793 0.0013569560833 0.002658121055 -0.0036330416333 -0.007147109136 0.0014365280513
          0.0075913141482 0.0045451065525 0.0029513989575 -1.1059117242e-05 -0.0037614328321 0.0091014346108
          -0.0029679816216 -0.0076199141331 -0.0091253947467 0.0071300514974 -0.0027292314917 0.001337613794
          0.0026525245048 -0.0036719841883 -0.0072084879503 0.0014092576457 0.0075544440188 0.0045262984931
          0.002916035708 -3.7207144487e-05 -0.0037867655046 0.0090890321881 -0.0029850143474 -0.0076342090033
          -0.0091647170484 0.0071391914971 -0.0027522195596 0.0013395819115 0.0026666482445 -0.0036902315915
          -0.0072508682497 0.0014040828682 0.0075468118303 0.0045319502242 0.00290508545 -4.1769108066e-05
          -0.0037945488002 0.0091052800417 -0.0029837752227 -0.007635677699 -0.0091910194606 0.0071710245684
          -0.0027542549651 0.0013621947728 0.0027012927458 -0.0036876881495 -0.0072704218328 0.0014198216377
          0.0075586321764 0.0045577930287 0.0029147244059 -2.5693178031e-05 -0.0037809328642 0.0091405045241
          -0.0029617394321 -0.0076153329574 -0.0091943629086 0.0072223143652 -0.0027343793772 0.0014051502803
          0.0027560926974 -0.0036630565301 -0.0072673270479 0.0014563071309 0.0075912801549 0.0046037626453
          0.0029450731818 1.1236852515e-05 -0.0037456897553 0.0091958269477 -0.0029182448052 -0.0075727244839
          -0.0091749550775 0.0072931488976 -0.0026920549572 0.0014716732549 0.0028346430045 -0.0036166924983
          -0.0072431233712 0.0015163047938 0.0076494887471 0.0046741766855 0.0029999271501 7.1312999353e-05
          -0.0036886997987 0.0092767002061 -0.0028528014664 -0.0075100809336 -0.0091354884207 0.0073891854845
          -0.0026232351083 0.0015659074998 0.0029408887494 -0.0035436514299 -0.0071935122833 0.0016040244373
          0.0077374805696 0.0047735171393 0.0030825349968 0.00015865161549 -0.003605889855 0.0093879345804
          -0.0027621081099 -0.0074235424399 -0.0090718735009 0.0075139114633 -0.0025324963499 0.0016813338734
          0.0030673991423 -0.0034485915676 -0.0071202274412 0.0017135567032 0.0078475708142 0.0048940139823
          0.0031867758371 0.00026785754017 -0.0035012555309 0.0095201572403 -0.0026501107495 -0.0073150857352
          -0.0089847939089 0.0076588094234 -0.0024389498867 0.0017970155459 0.0031931961421 -0.0033508089837
          -0.0070425961167 0.0018230642891 0.0079562561586 0.0050135506317 0.0032912322786 0.0003776178055
          -0.003394715488 0.0096493875608 -0.0025370251387 -0.007203951478 -0.0088936649263 0.0078005553223
          -0.0023592659272 0.0018969496014 0.003302983474 -0.003267575521 -0.0069775632583 0.0019177759532
          0.0080504491925 0.00511725666 0.0033814888448 0.00047237423132 -0.0033030339982 0.0097624734044
          -0.00243889587 -0.0071080466732 -0.0088164089248 0.0079251071438 -0.0022975709289 0.0019761077128
          0.0033906053286 -0.0032024167012 -0.0069286981598 0.0019927443936 0.008123495616 0.0051992572844
          0.0034523890354 0.0005471133627 -0.0032303058542 0.0098516782746 -0.002359763952 -0.0070309261791
          -0.0087562622502 0.0080250352621 -0.002254630439 0.0020343589131 0.0034558081534 -0.0031562210061
          -0.0068963710219 0.0020468302537 0.0081756412983 0.0052595739253 0.0035029349383 0.00060154974926
          -0.003177394392 0.0099179008976 -0.0023017397616 -0.0069739446044 -0.0087138330564 0.0081007527187
          -0.0022301226854 0.0020722905174 0.0035001840442 -0.0031291523483 -0.00688172644 0.0020815660246
          0.0082092629746 0.0052997451276 0.0035347228404 0.00063599622808 -0.0031443212647 0.0099638924003
          -0.0022637061775 -0.0069374535233 -0.008690295741 0.008154801093 -0.0022242695559 0.0020909488667
          0.0035248589702 -0.0031214915216 -0.0068857530132 0.0020975354128 0.0082259336486 0.0053214286454
          0.0035486132838 0.00065137707861 -0.0031315872911 0.0099919624627 -0.0022465388756 -0.0069232443348
          -0.0086877271533 0.0081889554858 -0.0022371446248 0.0020891106687 0.0035284813493 -0.0031332375947
          -0.0069076176733 0.0020931684412 0.0082226218656 0.0053221411072 0.0035426295362 0.00064659467898
          -0.0031391002703 0.0099979238585 -0.0022503042128 -0.0069296406582 -0.0087042888626 0.0082006193697
          -0.002261897549 0.0020716669969 0.0035146635491 -0.0031568126287 -0.0069380598143 0.0020736637525
          0.0082023572177 0.0053055165336 0.0035217234399 0.00062687351601 -0.0031594978645 0.0099842920899
          -0.0022678275127 -0.0069483416155 -0.0087301637977 0.0081917587668 -0.0022891890258 0.0020468863659
          0.003491882002 -0.0031830549706 -0.0069669634104 0.0020475864876 0.0081732394174 0.0052801184356
          0.0034941441845 0.00060148147168 -0.0031838316936 0.0099588111043 -0.0022906886879 -0.0069696670398
          -0.0087552946061 0.0081701083109 -0.0023140476551 0.0020234517287 0.0034692503978 -0.0032077431679
          -0.0069929701276 0.0020233928226 0.0081486497074 0.0052565103397 0.0034695202485 0.00057755212765
          -0.0032081450336 0.0099354982376 -0.0023146276362 -0.0069937165827 -0.0087804337963 0.0081479819492
          -0.0030267627444 0.0017697906587 0.0033965413459 -0.0040264818817 -0.0081643508747 0.0017887508729
          0.0087591093034 0.0053745615296 0.0034824940376 0.00016098165361 -0.0041046570987 0.010592450388
          -0.0031966953538 -0.0084741795436 -0.010282036848 0.0085218604654 0.0020965957083 0.01021745149
          0.0039810808375 0.00019580160733 -0.004830472637 -0.0036539190914 -0.0098589621484 0.0062594828196
          0.0076885144226 0.0062578776851 0.0024931584485 0.0030869913753 0.0024933083914 0.00019010104006
          -0.0021113932598 -0.002702804748 -0.0058776605874 -0.0058815963566 -0.0073132142425 -0.0021121080499
          0.0047320318408 0.0058165625669 0.0047348449007 0.0018996974686 0.0023187806364 0.0018982366892
          0.00013755436521 -0.0016257009702 -0.0020444483962 -0.0044589741156 -0.0044561452232 -0.0055392910726
          -0.0016246844316 0.003312374698 0.0040718964301 0.0033147966024 0.0013129877625 0.0016203407431
          0.0013116020709 7.4792624218e-05 -0.001162122353 -0.001470920979 -0.0031661507674 -0.0031643370166
          -0.0039243949577 -0.0011612302624 0.0020649894141 0.0025441481266 0.0020667964127 0.00080726621673
          0.00099671224598 0.00080572313163 2.3943186534e-05 -0.00075659941649 -0.00094893411733 -0.0020183513407
          -0.0020174919628 -0.0024965805933 -0.00075671367813 0.00097340892535 0.001197430538 0.00097266753437
          0.00037526659435 0.00046700384701 0.0003745330614 1.8276763285e-06 -0.00036764709512 -0.00046338504762
          -0.00096770800883 -0.00097037706291 -0.0011938735843 -0.00037034027628 0 0
          0 0 0 0 0 0
          0 0 0 0 0
        </DataArray>
        <DataArray type="Float32" Name="uy" format="ascii" RangeMin="-1.2257180214" RangeMax="1.2253755331">
          0.0089015755802 0.008532743901 0.0083412453532 -7.1535112511e-05 -0.0090481620282 -0.0085102347657
          -0.0086968522519 0.0089223878458 0.0088754696772 0.0055733467452 -7.1122602094e-05 -0.0090329200029
          -0.0090682785958 -0.0057223672047 0.0089033162221 0.0056116245687 -0.0090595176443 -0.0057599283755
          0.0081042507663 -8.0007936049e-05 -0.0082813547924 0.0082329791039 -0.0084071978927 -0.0083517916501
          -7.9207988165e-05 0.0081780133769 -6.9877853093e-05 -0.097742944956 -0.093560062349 -0.097737632692
          -0.069416068494 -0.065365798771 -0.069401301444 -0.091999150813 -0.063829794526 -0.094749867916
          -0.066489733756 -0.084977693856 -0.084129959345 -0.08939602226 -0.056810945272 -0.056021403521
          -0.061251632869 -0.080556347966 -0.052388016135 -0.089317888021 -0.061166338623 -0.086695410311
          -0.058547303081 -0.089621864259 -0.06147896871 -0.080563955009 -0.052394233644 -0.084128051996
          -0.05602876097 -0.089615568519 -0.061471454799 -0.094748646021 -0.06649722904 -0.13216722012
          -0.12800599635 -0.13215962052 -0.12644687295 -0.12916971743 -0.11944694072 -0.11859148741
          -0.12384800613 -0.11504683644 -0.12377480417 -0.12115659565 -0.12405200303 -0.11505334079
          -0.11859258264 -0.12404789031 -0.12916898727 -0.17238095403 -0.16820409894 -0.17237482965
          -0.16663733125 -0.16935655475 -0.15964433551 -0.15877483785 -0.1640343219 -0.1552528888
          -0.16396781802 -0.16134729981 -0.16422154009 -0.15525908768 -0.15877476335 -0.16421696544
          -0.1693559438 -0.21783176064 -0.21364895999 -0.21782596409 -0.21207655966 -0.21478681266
          -0.20509308577 -0.20421127975 -0.20947092772 -0.20071528852 -0.2094104737 -0.20678892732
          -0.20964044333 -0.20072074234 -0.20421157777 -0.20963640511 -0.21478620172 -0.2680349946
          -0.26384735107 -0.26802954078 -0.26227107644 -0.26497143507 -0.25530299544 -0.25440922379
          -0.25966468453 -0.25094094872 -0.25961086154 -0.25699025393 -0.25981664658 -0.25094586611
          -0.25440949202 -0.25981348753 -0.26497045159 -0.32250875235 -0.31831589341 -0.32250398397
          -0.31673467159 -0.31942546368 -0.30977982283 -0.30887427926 -0.31412744522 -0.30543211102
          -0.31407937407 -0.31145876646 -0.31426221132 -0.30543589592 -0.30887338519 -0.31425839663
          -0.31942480803 -0.38076734543 -0.37656599283 -0.38076266646 -0.37497937679 -0.37766265869
          -0.36803299189 -0.36711516976 -0.37236893177 -0.36369693279 -0.37232705951 -0.36970508099
          -0.37248671055 -0.3636995852 -0.36711344123 -0.37248337269 -0.3776614666 -0.44232055545
          -0.43811181188 -0.44231581688 -0.43652024865 -0.43919607997 -0.42958328128 -0.42865383625
          -0.43390721083 -0.42525961995 -0.43387126923 -0.43124848604 -0.4340082109 -0.4252615571
          -0.42865151167 -0.4340056479 -0.4391939342 -0.50670588017 -0.5024907589 -0.50670152903
          -0.50089472532 -0.50356292725 -0.49396753311 -0.4930267334 -0.49827948213 -0.4896556139
          -0.49824923277 -0.49562603235 -0.49836459756 -0.48965683579 -0.49302461743 -0.49836298823
          -0.50356018543 -0.57348376513 -0.56926119328 -0.57347977161 -0.56766009331 -0.57032221556
          -0.560739398 -0.55978775024 -0.56504184008 -0.55643701553 -0.56501686573 -0.56239229441
          -0.56511241198 -0.55643773079 -0.55978554487 -0.56511127949 -0.57031935453 -0.64224493504
          -0.63801419735 -0.64224159718 -0.63640767336 -0.63906484842 -0.62949097157 -0.62852913141
          -0.63378638029 -0.62519609928 -0.6337659955 -0.6311390996 -0.63384354115 -0.6251963377
          -0.62852656841 -0.63384193182 -0.63906270266 -0.71260416508 -0.70836740732 -0.71260160208
          -0.7067566514 -0.70940840244 -0.6998462081 -0.69887530804 -0.70413309336 -0.69555944204
          -0.70411717892 -0.70148938894 -0.70417815447 -0.69555926323 -0.69887268543 -0.70417678356
          -0.70940643549 -0.7842118144 -0.77997040749 -0.78420954943 -0.77835613489 -0.78100258112
          -0.77145218849 -0.77047348022 -0.77573138475 -0.76717334986 -0.7757191658 -0.77309072018
          -0.7757653594 -0.76717269421 -0.77047044039 -0.77576375008 -0.78100061417 -0.85676175356
          -0.85251665115 -0.85675960779 -0.85089951754 -0.853541255 -0.84400117397 -0.84301549196
          -0.84827333689 -0.8397294879 -0.848264575 -0.84563577175 -0.84829777479 -0.83972847462
          -0.84301251173 -0.8482965827 -0.85353940725 -0.92998754978 -0.92573791742 -0.92998582125
          -0.92411798239 -0.92675638199 -0.91722273827 -0.91623079777 -0.92148989439 -0.91295588017
          -0.92148405313 -0.91885435581 -0.92150604725 -0.91295492649 -0.91622817516 -0.9215053916
          -0.92675435543 -1.0036590099 -0.99940490723 -1.0036578178 -0.99778199196 -1.0004184246
          -0.99088698626 -0.98988938332 -0.99515163898 -0.98662263155 -0.99514836073 -0.99251717329
          -0.99516093731 -0.9866220355 -0.98988807201 -0.99516111612 -1.0004168749 -1.0775885582
          -1.0733309984 -1.0775885582 -1.0717053413 -1.0743399858 -1.0648109913 -1.0638090372
          -1.0690739155 -1.0605484247 -1.0690720081 -1.0664396286 -1.0690786839 -1.0605483055
          -1.0638086796 -1.0690778494 -1.0743404627 -1.1516379118 -1.1473788023 -1.1516381502
          -1.1457520723 -1.1483855247 -1.1388583183 -1.1378537416 -1.1431194544 -1.1345974207
          -1.1431188583 -1.1404862404 -1.1431210041 -1.1345974207 -1.1378538609 -1.1431208849
          -1.148385644 -1.2257180214 -1.2214580774 -1.2257179022 -1.2198313475 -1.2224642038
          -1.2129377127 -1.2119320631 -1.2171980143 -1.2086772919 -1.2171981335 -1.2145653963
          -1.2171982527 -1.2086774111 -1.2119324207 -1.2171987295 -1.2224639654 -0.034508664161
          -0.03390622884 -0.034489072859 -0.033653292805 -0.034171670675 -0.031947020441 -0.031930789351
          -0.033117715269 -0.030793067068 -0.033036991954 -0.0324421525 -0.033319812268 -0.030792165548
          -0.031939305365 -0.033327843994 -0.034193661064 -0.0080236019567 -0.0080348523334 -0.0079089449719
          -0.008262084797 -0.008105462417 -0.0078968787566 -0.0080423830077 0.069388404489 0.06531598419
          0.069372959435 0.097861588001 0.093641705811 0.097855485976 0.063772290945 0.092067226768
          0.066447034478 0.094841882586 0.05671781674 0.055925067514 0.061180666089 0.084985204041
          0.084129728377 0.089440971613 0.052273876965 0.080526158214 0.061094790697 0.089362733066
          0.058462962508 0.086717441678 0.061409581453 0.089667744935 0.052279926836 0.080533578992
          0.055932596326 0.084127478302 0.0614028126 0.089662380517 0.06645334512 0.0948394835
          0.13245904446 0.12824767828 0.13245077431 0.12666992843 0.12942394614 0.11958921701
          0.11872284859 0.12404008955 0.11513986439 0.12396656722 0.12131776661 0.1242441833
          0.11514540762 0.11872238666 0.12423986942 0.1294220984 0.17284803092 0.16861003637
          0.17284117639 0.16702009737 0.16977678239 0.15992951393 0.15904568136 0.1643794179
          0.1554788202 0.16431318223 0.16165494919 0.16456562281 0.1554838419 0.15904431045
          0.16456115246 0.16977486014 0.21844862401 0.21419195831 0.21844215691 0.21259172261
          0.21534633636 0.20549167693 0.20459239185 0.20994113386 0.20104250312 0.20988105237
          0.20721378922 0.21010906994 0.20104655623 0.20459020138 0.21010421216 0.21534492075
          0.26875948906 0.26448377967 0.2687536478 0.26287356019 0.26562717557 0.25576582551
          0.25485113263 0.26021376252 0.25131779909 0.26015993953 0.25748488307 0.26036435366
          0.25132122636 0.25484871864 0.26035955548 0.26562589407 0.32328647375 0.31899252534
          0.32328107953 0.31737285852 0.3201251924 0.31025731564 0.30932793021 0.31470376253
          0.30581107736 0.31465598941 0.31197339296 0.31483724713 0.30581399798 0.30932536721
          0.31483307481 0.32012376189 0.38155776262 0.37724450231 0.38155296445 0.37561497092
          0.37836700678 0.36848935485 0.36754480004 0.37293562293 0.36404335499 0.37289401889
          0.37020346522 0.37305229902 0.36404582858 0.36754289269 0.37304916978 0.37836518884
          0.44310459495 0.43877080083 0.44310036302 0.43713122606 0.43988388777 0.42999255657
          0.42903241515 0.4344407022 0.42554453015 0.43440520763 0.43170529604 0.43454071879
          0.42554697394 0.42903143167 0.43453869224 0.43988180161 0.50745487213 0.50310212374
          0.50745159388 0.50145274401 0.5042052865 0.49430260062 0.49332755804 0.49875196815
          0.48985263705 0.49872228503 0.49601426721 0.49883636832 0.48985552788 0.4933283031
          0.49883550406 0.50420409441 0.5741738081 0.56980407238 0.57417172194 0.56814539433
          0.5708976984 0.56098604202 0.55999749899 0.56543618441 0.5565354228 0.56541132927
          0.56269592047 0.56550616026 0.55653858185 0.55999916792 0.56550514698 0.57089793682
          0.64285486937 0.63846945763 0.64285361767 0.63680267334 0.63955461979 0.62963461876
          0.62863349915 0.63408511877 0.62518340349 0.63406533003 0.63134306669 0.63414138556
          0.62518650293 0.62863606215 0.63414102793 0.63955515623 0.7131114006 0.70871222019
          0.71311062574 0.70703828335 0.70978963375 0.69986301661 0.69885092974 0.70431369543
          0.69541198015 0.70429801941 0.70156985521 0.70435756445 0.69541460276 0.69885337353
          0.70435738564 0.70979052782 0.78460085392 0.78019034863 0.78460067511 0.77851009369
          0.78126060963 0.77133011818 0.77030915022 0.77578020096 0.76687991619 0.77576822042
          0.77303475142 0.77581387758 0.76688176394 0.77031052113 0.77581274509 0.78126227856
          0.8570253849 0.85260426998 0.85702580214 0.85091847181 0.85366845131 0.84373289347
          0.84270346165 0.84818297625 0.83928269148 0.84817421436 0.84543627501 0.84820735455
          0.83928453922 0.84270524979 0.84820646048 0.85367047787 0.93012732267 0.92569577694
          0.93012785912 0.92400485277 0.92675542831 0.91681236029 0.91577547789 0.92126381397
          0.91236066818 0.92125785351 0.91851502657 0.92128026485 0.91236197948 0.9157769084
          0.9212795496 0.92675745487 1.0036808252 0.99924004078 1.0036814213 0.99754464626
          1.0002962351 0.99034672976 0.98930412531 0.99479931593 0.98589426279 0.99479550123
          0.99204868078 0.99480909109 0.98589497805 0.98930466175 0.99480813742 1.0002976656
          1.0774960518 1.0730494261 1.0774962902 1.0713512897 1.0741028786 1.0641503334
          1.0631033182 1.0686026812 1.0596981049 1.0686010122 1.0658515692 1.0686070919
          1.0596983433 1.0631034374 1.0686068535 1.0741034746 1.151422143 1.1469730139
          1.151422143 1.1452739239 1.148024559 1.1380735636 1.1370241642 1.1425241232
          1.1336231232 1.1425235271 1.1397737265 1.1425253153 1.1336232424 1.1370241642
          1.1425253153 1.1480246782 1.2253754139 1.220925808 1.2253755331 1.2192261219
          1.2219763994 1.2120261192 1.2109760046 1.2164763212 1.2075760365 1.2164759636
          1.2137259245 1.2164766788 1.2075760365 1.2109758854 1.2164763212 1.2219765186
          0.034337516874 0.033741492778 0.034317664802 0.033490613103 0.034006442875 0.031784553081
          0.031770460308 0.032956510782 0.030629668385 0.032874621451 0.032280888408 0.033160272986
          0.030629277229 0.031780324876 0.033169295639 0.034029208124 0.007836099714 0.0078462734818
          0.0077125355601 0.0080851633102 0.0079226307571 0.0077009098604 0.0078548677266 -0.0045101759024
          -1.0765321349e-05 0.0044893450104 0.0072711538523 -9.9403869172e-06 -0.0072914501652 -9.7824577097e-06
          0.0072740982287 -9.4787446869e-06 0.0044763763435 -0.0044962232932 -1.0263032891e-05 -0.0072937966324
          -0.0032788908575 4.8092428187e-05 0.0033759479411 0.0054440284148 4.912940858e-05 -0.0053442507051
          4.9499351007e-05 0.0054434975609 4.9337490054e-05 0.0033796937205 -0.0032811244018 4.89000995e-05
          -0.0053432057612 -0.0022769609932 7.3154420534e-05 0.0024244128726 0.0038799492177 7.4724528531e-05
          -0.0037291350309 7.5145864685e-05 0.0038810505066 7.503056986e-05 0.0024252994917 -0.0022765074391
          7.3718758358e-05 -0.0037298349198 -0.0014229275985 5.7732420828e-05 0.0015392764471 0.0024600354955
          5.8577003074e-05 -0.0023422427475 5.8679601352e-05 0.0024609884713 5.8670717408e-05 0.0015411711065
          -0.0014243806945 5.8158333559e-05 -0.0023429270368 -0.0006805973826 2.2460806576e-05 0.00072482106043
          0.0011624527397 2.1742156605e-05 -0.0011194789549 2.1796788133e-05 0.0011638026917 2.2257385353e-05
          0.00072738784365 -0.00068088556873 2.3944066925e-05 -0.0011198059656 0 0
          0 0 0 0 0 0
          0 0 0 0 0
        </DataArray>
        <DataArray type="Float32" Name="uz" format="ascii" RangeMin="-0.041694689542" RangeMax="0.041789665818">
          0.00020330525876 -0.00024039468553 0.00068353512324 5.0081894187e-06 -0.00018901580188 -0.00067168084206
          0.00026895178598 -0.00020790167036 -0.0014761842322 -0.00030681397766 1.8297680072e-05 0.0015256436309
          0.00024081618176 0.00035609860788 0.0014636294218 0.00038889600546 -0.0014636308188 -0.00039224835928
          -0.00097233231645 2.649034468e-05 0.0010087194387 -0.001812745817 0.0018627580721 -0.0018280274235
          -3.8738335206e-06 0.0018264015671 1.168957624e-05 -0.0053030862473 0.0028386048507 0.0055751907639
          -0.0042389757 0.0023076692596 0.0045056035742 -0.0069908266887 -0.0055829971097 -0.014121516608
          -0.011242428795 0.0028195548803 0.01435276214 0.0089015169069 0.0022251922637 0.011230926029
          0.0071112597361 0.0055407672189 0.0042902743444 0.00011161946168 0.00010989550356 -0.0070127528161
          -0.0055075264536 0.017720716074 0.014061166905 -0.0053625940345 -0.0041265906766 -0.014163622633
          -0.011042097583 -0.017493743449 -0.013846382499 0.014368737116 0.011506559327 -0.0063474038616
          0.0033620935865 0.0066168149933 -0.0083625763655 -0.016846813262 0.0033392116893 0.017073307186
          0.01059522666 0.0065729459748 0.00011109390471 -0.0083778258413 0.021095803007 -0.006396763958
          -0.016882169992 -0.02087103948 0.017096165568 -0.0073064090684 0.0038395014126 0.0075744683854
          -0.0096146306023 -0.019355140626 0.0038165387232 0.019571604207 0.012140103616 0.0075273830444
          0.00011058840028 -0.009628623724 0.024187395349 -0.0073508927599 -0.019381122664 -0.023963278159
          0.019602397457 -0.008177632466 0.0042728064582 0.0084411250427 -0.010754255578 -0.02163204737
          0.0042514628731 0.021849671379 0.013546682894 0.0083983521909 0.00010992034368 -0.010767288506
          0.027000907809 -0.0082204239443 -0.02165903151 -0.02677853778 0.021876143292 -0.0089660976082
          0.0046622548252 0.0092216674238 -0.011783101596 -0.023688971996 0.0046440670267 0.023903910071
          0.014814754017 0.009184313938 0.00010868132085 -0.011794521473 0.029538296163 -0.0090033104643
          -0.023711862043 -0.029318202287 0.023926943541 -0.0096699399874 0.0050092972815 0.0099165551364
          -0.012700609863 -0.025522837415 0.0049951262772 0.025737445801 0.015945946798 0.0098874019459
          0.00010801733879 -0.012709408067 0.031801342964 -0.0096992887557 -0.025541258976 -0.031582076102