<VTKFile type="UnstructuredGrid" version="1.0" byte_order="LittleEndian" header_type="UInt64">
  <UnstructuredGrid>
    <Piece NumberOfPoints="791" NumberOfCells="973">
      <PointData>
        <DataArray type="Float32" Name="ux" format="ascii" RangeMin="-0.76385164261" RangeMax="1.9223437078e-11">
          -0.067905537784 -0.073941774666 -0.076363861561 -0.066788762808 -0.067922130227 -0.076293379068
          -0.074003249407 -0.067876242101 -0.072386130691 -0.068900518119 -0.066780306399 -0.07243694365
          -0.06792524457 -0.068957850337 -0.072476938367 -0.068999372423 -0.07249263674 -0.068954102695
          -0.080098256469 -0.07196354866 -0.08018244803 -0.080060303211 -0.080131538212 -0.080130107701
          -0.072010084987 -0.080216392875 -0.06605232507 -0.14884011447 -0.14914870262 -0.1493139863
          -0.12160028517 -0.12193901837 -0.12207692862 -0.14873689413 -0.12153092772 -0.14842605591
          -0.12120363116 -0.14913141727 -0.14951193333 -0.14934788644 -0.12194324285 -0.12231311202
          -0.12214627862 -0.14924785495 -0.12207276374 -0.14902344346 -0.12182769179 -0.14875996113
          -0.1215787679 -0.14965282381 -0.12243961543 -0.14888858795 -0.12173762172 -0.14851346612
          -0.12136172503 -0.14830698073 -0.12112027407 -0.14961060882 -0.12237773091 -0.17722356319
          -0.17753885686 -0.17769135535 -0.17713178694 -0.1768219918 -0.17752662301 -0.1779114455
          -0.17774130404 -0.17764426768 -0.17741796374 -0.17715723813 -0.17804692686 -0.17728257179
          -0.17691379786 -0.17670993507 -0.17799134552 -0.20668271184 -0.20699618757 -0.2071442008
          -0.20659306645 -0.20628836751 -0.20698602498 -0.20737738907 -0.20720286667 -0.20710131526
          -0.20687763393 -0.20661503077 -0.20751270652 -0.20673291385 -0.20636726916 -0.20617310703
          -0.20744946599 -0.23708365858 -0.23739756644 -0.23753990233 -0.23699760437 -0.23669655621
          -0.23738823831 -0.23778547347 -0.23760713637 -0.2375023663 -0.23728074133 -0.23701715469
          -0.23792022467 -0.23712846637 -0.23676669598 -0.23657977581 -0.23784889281 -0.26831373572
          -0.26862725616 -0.26876461506 -0.26823043823 -0.26793333888 -0.26861923933 -0.2690217793
          -0.26883983612 -0.26873219013 -0.26851207018 -0.26824757457 -0.26915547252 -0.268353194
          -0.26799443364 -0.26781520247 -0.26907682419 -0.30026558042 -0.30057871342 -0.30071130395
          -0.30018520355 -0.29989159107 -0.3005720675 -0.30097946525 -0.30079397559 -0.30068361759
          -0.30046543479 -0.30020001531 -0.30111247301 -0.3002999723 -0.29994449019 -0.29977241158
          -0.30102682114 -0.33284050226 -0.33315324783 -0.33328169584 -0.33276236057 -0.33247208595
          -0.33314779401 -0.3335596621 -0.33337080479 -0.3332580328 -0.33304139972 -0.33277541399
          -0.33369156718 -0.33286988735 -0.33251768351 -0.33235171437 -0.33359971642 -0.36594742537
          -0.36625954509 -0.36638393998 -0.36587142944 -0.36558422446 -0.36625516415 -0.36667111516
          -0.36647948623 -0.36636459827 -0.36614915729 -0.3658823967 -0.36680218577 -0.36597251892
          -0.36562287807 -0.36546292901 -0.36670461297 -0.39950311184 -0.39981499314 -0.39993563294
          -0.3994294107 -0.39914497733 -0.39981147647 -0.40023109317 -0.40003660321 -0.3999196887
          -0.39970582724 -0.39943835139 -0.40036150813 -0.39952415228 -0.39917713404 -0.39902248979
          -0.40025866032 -0.43343156576 -0.43374350667 -0.43386098742 -0.43336001039 -0.43307796121
          -0.43374073505 -0.43416389823 -0.4339671731 -0.43384817243 -0.43363529444 -0.43336737156
          -0.43429371715 -0.43344920874 -0.43310421705 -0.4329546392 -0.43418627977 -0.46766418219
          -0.46797582507 -0.46809023619 -0.46759429574 -0.46731421351 -0.46797376871 -0.46840041876
          -0.46820119023 -0.46808072925 -0.46786868572 -0.467600137 -0.46852952242 -0.4676784277
          -0.46733513474 -0.46719002724 -0.46841797233 -0.50213813782 -0.50244963169 -0.5025613308
          -0.50206953287 -0.50179177523 -0.50244796276 -0.50287735462 -0.50267636776 -0.50255429745
          -0.502343297 -0.50207418203 -0.50300627947 -0.50214916468 -0.50180798769 -0.50166654587
          -0.50289064646 -0.53679794073 -0.53710901737 -0.53721868992 -0.53673052788 -0.53645455837
          -0.53710824251 -0.53753972054 -0.53733718395 -0.53721362352 -0.53700351715 -0.53673398495
          -0.53766834736 -0.53680640459 -0.53646653891 -0.53632879257 -0.53754931688 -0.57159513235
          -0.57190608978 -0.57201367617 -0.57152891159 -0.57125431299 -0.57190555334 -0.57233905792
          -0.57213509083 -0.57201051712 -0.571801126 -0.57153153419 -0.57246738672 -0.57160121202
          -0.57126283646 -0.57112795115 -0.57234579325 -0.60648858547 -0.60679942369 -0.60690546036
          -0.60642319918 -0.60614997149 -0.60679912567 -0.60723423958 -0.6070291996 -0.60690373182
          -0.60669493675 -0.6064248085 -0.60736221075 -0.6064928174 -0.60615593195 -0.60602325201
          -0.60723817348 -0.64144384861 -0.64175438881 -0.64185929298 -0.64137917757 -0.64110720158
          -0.6417542696 -0.64219075441 -0.64198482037 -0.64185851812 -0.64165073633 -0.64138042927
          -0.64231860638 -0.64144665003 -0.64111042023 -0.64098018408 -0.64219290018 -0.67643392086
          -0.67674416304 -0.67684823275 -0.67636978626 -0.67609870434 -0.67674452066 -0.67718148232
          -0.67697519064 -0.67684823275 -0.67664068937 -0.67637050152 -0.67730927467 -0.67643523216
          -0.67610031366 -0.67597109079 -0.67718219757 -0.71143913269 -0.71174961329 -0.71185296774
          -0.71137541533 -0.71110463142 -0.71174943447 -0.71218717098 -0.71198046207 -0.71185290813
          -0.71164608002 -0.71137547493 -0.71231478453 -0.71143990755 -0.71110522747 -0.71097683907
          -0.71218729019 -0.74644804001 -0.74675804377 -0.74686169624 -0.74638426304 -0.74611359835
          -0.74675810337 -0.7471960783 -0.746989429 -0.74686163664 -0.74665492773 -0.74638432264
          -0.74732363224 -0.74644809961 -0.74611377716 -0.74598586559 -0.7471960187 -0.0860645473
          -0.090516068041 -0.086328752339 -0.091886043549 -0.089070409536 -0.098935954273 -0.10017103702
          -0.094865918159 -0.10323346406 -0.094665803015 -0.097102612257 -0.095053046942 -0.1030177176
          -0.099571757019 -0.094226665795 -0.089799888432 -0.086452618241 -0.087882205844 -0.092707388103
          -0.080178678036 -0.084037102759 -0.092713579535 -0.087885789573 -0.1227972731 -0.12240216881
          -0.12228149921 -0.15063165128 -0.15021060407 -0.15011917055 -0.12282275409 -0.1506267041
          -0.12312798947 -0.15095975995 -0.12244115025 -0.12199869007 -0.12214367837 -0.15021830797
          -0.14974598587 -0.14993222058 -0.12241727859 -0.15015637875 -0.12252240628 -0.15031561255
          -0.12280602008 -0.1505971998 -0.12174385041 -0.14952819049 -0.12278924137 -0.15055772662
          -0.12305726856 -0.15085318685 -0.12320111692 -0.15101179481 -0.1218495965 -0.14966979623
          -0.17965725064 -0.17925025523 -0.17915035784 -0.17966632545 -0.17998862267 -0.1792626828
          -0.17879523337 -0.17897835374 -0.17920100689 -0.17935876548 -0.17964188755 -0.17857991159
          -0.17960353196 -0.17990288138 -0.18005490303 -0.17871305346 -0.20980606973 -0.20940499008
          -0.20930454135 -0.20982140303 -0.21014323831 -0.20941571891 -0.20894408226 -0.20913437009
          -0.2093462348 -0.20951418579 -0.20980006456 -0.208738029 -0.20975674689 -0.21006537974
          -0.21021775901 -0.20887431502 -0.24093942344 -0.2405449152 -0.24044252932 -0.24096177518
          -0.24128089845 -0.24055412412 -0.24008062482 -0.24027554691 -0.24047924578 -0.24065469205
          -0.24094237387 -0.23988200724 -0.24089592695 -0.24121269584 -0.24136351049 -0.2400187999
          -0.27293801308 -0.27254974842 -0.27244535089 -0.27296629548 -0.27328369021 -0.27255746722
          -0.27208203077 -0.27228173614 -0.27247738838 -0.27266016603 -0.27294978499 -0.27189046144
          -0.2728998363 -0.27322408557 -0.27337399125 -0.27202799916 -0.30569037795 -0.30530765653
          -0.3052020371 -0.30572456121 -0.30603969097 -0.30531433225 -0.30483689904 -0.30504098535
          -0.30522924662 -0.30541884899 -0.3057102263 -0.30465248227 -0.30565711856 -0.30598813295
          -0.30613726377 -0.30479058623 -0.33909314871 -0.3387157917 -0.33860847354 -0.33913242817
          -0.3394459486 -0.33872118592 -0.33824235201 -0.3384501636 -0.33863168955 -0.33882749081
          -0.33912017941 -0.33806407452 -0.33906456828 -0.33940157294 -0.33954969049 -0.33820298314
          -0.37305000424 -0.37267762423 -0.37256941199 -0.37309449911 -0.37340563536 -0.37268236279
          -0.37220185995 -0.37241363525 -0.37258863449 -0.37278982997 -0.37308380008 -0.37202945352
          -0.37302556634 -0.37336829305 -0.37351584435 -0.372169137 -0.40747243166 -0.40710508823
          -0.40699565411 -0.40752148628 -0.40783125162 -0.4071084857 -0.40662696958 -0.40684181452
          -0.40701106191 -0.40721738338 -0.40751287341 -0.40646004677 -0.40745222569 -0.4078001976
          -0.4079464972 -0.40660002828 -0.44228002429 -0.44191640615 -0.44180613756 -0.44233301282
          -0.44264104962 -0.44191917777 -0.44143646955 -0.44165462255 -0.44181856513 -0.44202941656
          -0.44232586026 -0.44127425551 -0.44226330519 -0.44261583686 -0.44276174903 -0.44141495228
          -0.47739940882 -0.477039814 -0.47692847252 -0.47745609283 -0.47776272893 -0.47704178095
          -0.47655829787 -0.47677871585 -0.47693800926 -0.47715318203 -0.4774505198 -0.47640019655
          -0.47738587856 -0.47774264216 -0.47788777947 -0.47654104233 -0.51276564598 -0.51240956783
          -0.5122974515 -0.51282572746 -0.51313108206 -0.51241117716 -0.51192677021 -0.51214957237
          -0.51230454445 -0.51252305508 -0.51282131672 -0.51177239418 -0.51275509596 -0.51311540604
          -0.51325970888 -0.511913836 -0.54832100868 -0.54796785116 -0.54785525799 -0.54838377237
          -0.54868793488 -0.54796892405 -0.54748415947 -0.54770851135 -0.54785996675 -0.54808157682
          -0.54838043451 -0.5473330617 -0.54831296206 -0.54867631197 -0.54881995916 -0.54747456312
          -0.58401459455 -0.58366400003 -0.58355051279 -0.58407974243 -0.58438283205 -0.58366453648
          -0.58317929506 -0.58340531588 -0.58355396986 -0.58377808332 -0.58407747746 -0.58303111792
          -0.58400887251 -0.5843744874 -0.58451783657 -0.58317279816 -0.61980372667 -0.61945515871
          -0.61934143305 -0.61987102032 -0.62017351389 -0.61945551634 -0.61896967888 -0.6191971302
          -0.61934316158 -0.61956942081 -0.61986941099 -0.61882388592 -0.61979973316 -0.62016779184
          -0.6203110218 -0.61896544695 -0.65565371513 -0.65530651808 -0.65519225597 -0.65572237968
          -0.65602433681 -0.6553067565 -0.6548203826 -0.65504878759 -0.65519315004 -0.65542119741
          -0.65572142601 -0.65467607975 -0.65565109253 -0.65602099895 -0.65616363287 -0.65481811762
          -0.69153702259 -0.69119113684 -0.69107633829 -0.69160711765 -0.69190841913 -0.69119101763
          -0.69070404768 -0.69093346596 -0.69107669592 -0.69130569696 -0.6916064024 -0.69056117535
          -0.69153565168 -0.69190686941 -0.69204950333 -0.69070321321 -0.72743529081 -0.7270899415
          -0.72697496414 -0.72750592232 -0.72780704498 -0.72708970308 -0.72660279274 -0.72683256865
          -0.72697496414 -0.72720468044 -0.72750580311 -0.72646021843 -0.72743475437 -0.72780668736
          -0.72794878483 -0.72660237551 -0.76333743334 -0.76299226284 -0.76287716627 -0.76340824366
          -0.76370948553 -0.76299226284 -0.76250511408 -0.76273494959 -0.76287710667 -0.7631072998
          -0.76340830326 -0.76236283779 -0.76333731413 -0.76370924711 -0.76385164261 -0.76250499487
          -0.086365558207 -0.09046125412 -0.086046159267 -0.092375136912 -0.089920826256 -0.099040456116
          -0.099763005972 -0.094577930868 -0.10331573337 -0.094828478992 -0.097659170628 -0.094304658473
          -0.10356204957 -0.10047762096 -0.095277659595 -0.089080512524 -0.086469590664 -0.087867468596
          -0.092754334211 -0.080178417265 -0.084090165794 -0.092812895775 -0.087986633182 -0.044374693185
          -0.04411188513 -0.044090479612 -0.044403705746 -0.044298615307 -0.044545222074 -0.044334385544
          -0.044579494745 -0.04431495443 -0.044412665069 -0.044107683003 -0.044150352478 -0.044392831624
          -0.02743794769 -0.027290076017 -0.027190983295 -0.027414930984 -0.027307085693 -0.027542233467
          -0.027320850641 -0.027560502291 -0.027316758409 -0.027466626838 -0.027205849066 -0.02731564641
          -0.027412762865 -0.01491663605 -0.014736023732 -0.014652563259 -0.014896759763 -0.014788824134
          -0.015032059513 -0.014803019352 -0.015049262904 -0.014795703813 -0.01493793074 -0.014659442939
          -0.014753791504 -0.014890260994 -0.0064201112837 -0.0062526171096 -0.0061663156375 -0.0063976794481
          -0.0062963664532 -0.0065285982564 -0.0063103972934 -0.0065427822992 -0.0063003953546 -0.0064353519119
          -0.0061680143699 -0.0062629440799 -0.0063897417858 -0.0016329790233 -0.0014258043375 -0.0013190984027
          -0.0016011903062 -0.0014692349359 -0.0017631987575 -0.0014798168559 -0.0017775282031 -0.0014710298274
          -0.0016445480287 -0.0013150713639 -0.0014303489588 -0.0015899091959 9.5079057474e-12 -7.7221326555e-11
          1.9223437078e-11 -1.4465414543e-13 -2.8215296852e-12 -2.6798480969e-12 9.5681774136e-13 -5.0503184127e-14
          3.3316116098e-15 0 0 0 -1.3327063926e-15
        </DataArray>
        <DataArray type="Float32" Name="uy" format="ascii" RangeMin="-0.76839190722" RangeMax="3.9321987506e-12">
          -0.067131511867 -0.072983965278 -0.075354248285 -0.066140793264 -0.067130707204 -0.075323916972
          -0.073060713708 -0.06708765775 -0.071565970778 -0.068213246763 -0.066147632897 -0.071781791747
          -0.067182838917 -0.068283818662 -0.071759261191 -0.068281434476 -0.071646690369 -0.068253420293
          -0.079081766307 -0.071191027761 -0.07920909673 -0.079140074551 -0.079265810549 -0.079176165164
          -0.07122900337 -0.079215884209 -0.065414972603 -0.14913226664 -0.14950929582 -0.14919145405
          -0.12074642628 -0.12113136798 -0.12079145759 -0.14962515235 -0.12125834078 -0.14941222966
          -0.12103449553 -0.15012675524 -0.1501904577 -0.14984172583 -0.12175639719 -0.12183054537
          -0.12147008628 -0.15039610863 -0.12202447653 -0.14982786775 -0.12146098167 -0.15004369617
          -0.1216827929 -0.14988200366 -0.12151587009 -0.15046046674 -0.12209416926 -0.15029342473
          -0.12194419652 -0.14988730848 -0.12152748555 -0.14950628579 -0.12111373991 -0.17869077623
          -0.17906342447 -0.17874105275 -0.17918136716 -0.17896787822 -0.17968668044 -0.17975398898
          -0.17939677835 -0.17996361852 -0.17938432097 -0.17959913611 -0.17943334579 -0.18001928926
          -0.17984355986 -0.17943680286 -0.17904990911 -0.20930913091 -0.20967487991 -0.20935373008
          -0.20979340374 -0.20958246291 -0.21029983461 -0.21036744118 -0.21000635624 -0.2105807066
          -0.2099955976 -0.21020831168 -0.21003842354 -0.21063052118 -0.21044765413 -0.21004258096
          -0.20965477824 -0.24086371064 -0.24122445285 -0.240903005 -0.24134342372 -0.24113368988
          -0.24185088277 -0.24191957712 -0.24155427516 -0.24213667214 -0.24154488742 -0.24175567925
          -0.24158258736 -0.24218036234 -0.24199011922 -0.24158611894 -0.24119727314 -0.27324420214
          -0.27359926701 -0.27327823639 -0.27371862531 -0.27351084352 -0.27422711253 -0.27429661155
          -0.27392747998 -0.27451702952 -0.27391934395 -0.27412885427 -0.27395227551 -0.27455529571
          -0.27435821295 -0.27395582199 -0.27356591821 -0.30634388328 -0.30669370294 -0.30637288094
          -0.30681356788 -0.3066072166 -0.30732277036 -0.30739304423 -0.30702075362 -0.30761671066
          -0.30701377988 -0.30722144246 -0.30704182386 -0.30764988065 -0.30744642019 -0.30704510212
          -0.30665454268 -0.34006381035 -0.34040921926 -0.34008863568 -0.34052935243 -0.34032467008
          -0.34103924036 -0.34111005068 -0.34073480964 -0.34133666754 -0.34072902799 -0.34093493223
          -0.34075284004 -0.34136524796 -0.34115594625 -0.34075582027 -0.34036457539 -0.37431329489
          -0.37465432286 -0.37433433533 -0.37477448583 -0.3745713532 -0.37528529763 -0.37535652518
          -0.37497869134 -0.37558585405 -0.37497365475 -0.3751783669 -0.3749935329 -0.37560990453
          -0.37539553642 -0.37499663234 -0.3746047914 -0.40900829434 -0.40934497118 -0.40902531147
          -0.40946570039 -0.40926337242 -0.40997698903 -0.41004860401 -0.40966829658 -0.41028049588
          -0.40966430306 -0.40986773372 -0.40968066454 -0.41030052304 -0.41008144617 -0.40968352556
          -0.40929108858 -0.4440716207 -0.44440492988 -0.4440857172 -0.44452577829 -0.44432482123
          -0.44503778219 -0.44511020184 -0.4447272718 -0.44534420967 -0.44472423196 -0.44492641091
          -0.44473746419 -0.44536066055 -0.44513705373 -0.44473996758 -0.44434717298 -0.47943410277
          -0.47976472974 -0.47944530845 -0.47988584638 -0.47968548536 -0.48039850593 -0.48047146201
          -0.48008617759 -0.4807073772 -0.48008361459 -0.48028483987 -0.48009389639 -0.48072046041
          -0.48049300909 -0.48009639978 -0.47970288992 -0.51503378153 -0.51536118984 -0.51504212618
          -0.51548272371 -0.51528304815 -0.51599603891 -0.51606911421 -0.51568222046 -0.51630717516
          -0.51568043232 -0.51588070393 -0.5156879425 -0.51631736755 -0.51608610153 -0.51568996906
          -0.51529639959 -0.55081439018 -0.55113953352 -0.55082035065 -0.55126094818 -0.55106210709
          -0.55177479982 -0.55184829235 -0.55145955086 -0.5520876646 -0.55145841837 -0.5516576767
          -0.55146384239 -0.5520953536 -0.55186110735 -0.55146574974 -0.55107182264 -0.58672761917
          -0.58705079556 -0.58673214912 -0.58717244864 -0.58697420359 -0.58768647909 -0.58776056767
          -0.58737051487 -0.58800113201 -0.5873695612 -0.58756822348 -0.58737313747 -0.58800673485
          -0.58776950836 -0.58737498522 -0.58698099852 -0.6227337718 -0.62305504084 -0.62273645401
          -0.6231765151 -0.62297916412 -0.62369084358 -0.62376523018 -0.62337398529 -0.62400686741
          -0.62337344885 -0.62357157469 -0.62337577343 -0.62401050329 -0.62377125025 -0.62337720394
          -0.62298303843 -0.6587985158 -0.65911847353 -0.6587998867 -0.65924006701 -0.65904295444
          -0.65975433588 -0.65982890129 -0.65943694115 -0.66007137299 -0.65943688154 -0.65963435173
          -0.65943777561 -0.66007333994 -0.65983271599 -0.65943872929 -0.65904515982 -0.69489574432
          -0.69521439075 -0.69489634037 -0.69533604383 -0.6951392889 -0.69585049152 -0.69592541456
          -0.69553285837 -0.69616800547 -0.69553267956 -0.6957296133 -0.69553303719 -0.69616907835
          -0.69592726231 -0.69553399086 -0.69514000416 -0.73100602627 -0.73132437468 -0.73100626469
          -0.73144602776 -0.73124939203 -0.73196065426 -0.73203545809 -0.73164260387 -0.73227840662
          -0.73164236546 -0.7318392992 -0.73164260387 -0.73227882385 -0.73203605413 -0.7316429019
          -0.73124951124 -0.76711934805 -0.76743739843 -0.76711958647 -0.76755905151 -0.7673624754
          -0.76807361841 -0.76814877987 -0.76775568724 -0.76839160919 -0.76775574684 -0.76795214415
          -0.76775574684 -0.76839190722 -0.76814901829 -0.76775580645 -0.76736241579 -0.084327965975
          -0.088996745646 -0.084386616945 -0.090733811259 -0.087869226933 -0.098008967936 -0.099066771567
          -0.093540400267 -0.10245929658 -0.093530982733 -0.096341066062 -0.093574017286 -0.10253700614
          -0.099199399352 -0.093597315252 -0.087967172265 -0.085374735296 -0.086839906871 -0.091589726508
          -0.079155534506 -0.082988962531 -0.091623418033 -0.086860708892 -0.12037168443 -0.12072587758
          -0.12031608075 -0.1486389637 -0.14896798134 -0.14857208729 -0.12089272588 -0.14914104342
          -0.12071879208 -0.14898183942 -0.12144588679 -0.12161485851 -0.12111772597 -0.14968380332
          -0.14983741939 -0.14934900403 -0.12179666013 -0.15003152192 -0.12109799683 -0.1493357271
          -0.12130407244 -0.14954382181 -0.12115801871 -0.14939031005 -0.12172929198 -0.14997068048
          -0.12150815874 -0.1497374624 -0.12115469575 -0.14939302206 -0.12062755972 -0.14887534082
          -0.17803566158 -0.17837192118 -0.17797760665 -0.17854051292 -0.17837183177 -0.17908900976
          -0.17923487723 -0.17875152826 -0.1794385463 -0.17873930931 -0.17895010114 -0.1787866503
          -0.17938619852 -0.17914955318 -0.17879110575 -0.17827776074 -0.20847174525 -0.20880936086
          -0.20842012763 -0.20897418261 -0.20880030096 -0.20952546597 -0.20966407657 -0.20918577909
          -0.20987509191 -0.20917519927 -0.20938663185 -0.20921747386 -0.20982846618 -0.20958808064
          -0.20922087133 -0.20871713758 -0.23982253671 -0.240162462 -0.23977716267 -0.24032396078
          -0.24014408886 -0.24087819457 -0.24101006985 -0.24053651094 -0.24122880399 -0.24052739143
          -0.24073971808 -0.2405641973 -0.24118769169 -0.24094356596 -0.24056753516 -0.24007102847
          -0.27197989821 -0.27232202888 -0.27194049954 -0.2724802494 -0.27229562402 -0.27303722501
          -0.2731628716 -0.27269378304 -0.27338847518 -0.27268576622 -0.27289918065 -0.27271795273
          -0.2733527422 -0.27310532331 -0.27272096276 -0.27223148942 -0.30484172702 -0.30518519878
          -0.30480745435 -0.30534052849 -0.30515110493 -0.30589997768 -0.30601990223 -0.30555465817
          -0.30625155568 -0.30554804206 -0.30576220155 -0.30557543039 -0.30622079968 -0.30597016215
          -0.30557855964 -0.30509579182 -0.3383103013 -0.33865574002 -0.33828121424 -0.33880805969
          -0.33861422539 -0.33936935663 -0.33948388696 -0.33902287483 -0.33972156048 -0.33901718259
          -0.33923223615 -0.33904033899 -0.33969533443 -0.33944195509 -0.33904331923 -0.33856675029
          -0.37229660153 -0.37264311314 -0.37227195501 -0.3727927804 -0.3725951314 -0.37335589528
          -0.37346529961 -0.37300828099 -0.37370836735 -0.37300351262 -0.37321928144 -0.37302291393
          -0.37368649244 -0.37343028188 -0.37302559614 -0.37255501747 -0.40671727061 -0.4070648849
          -0.40669667721 -0.40721213818 -0.4070109725 -0.40777689219 -0.40788167715 -0.40742811561
          -0.40812960267 -0.40742427111 -0.40764048696 -0.40744021535 -0.40811172128 -0.40785306692
          -0.40744251013 -0.4069775641 -0.44149628282 -0.44184547663 -0.44147968292 -0.44199055433
          -0.44178587198 -0.44255658984 -0.4426573813 -0.44220682979 -0.44290971756 -0.44220367074
          -0.44242051244 -0.44221660495 -0.44289529324 -0.44263419509 -0.44221881032 -0.44175869226
          -0.47656643391 -0.47691625357 -0.47655311227 -0.47705939412 -0.47685202956 -0.47762697935
          -0.47772398591 -0.477276057 -0.47797992826 -0.47727382183 -0.47749099135 -0.47728377581
          -0.47796869278 -0.47770580649 -0.47728568316 -0.47683018446 -0.51186603308 -0.51221656799
          -0.51185566187 -0.51235795021 -0.51214796305 -0.5129262805 -0.51302021742 -0.51257491112
          -0.51327961683 -0.51257294416 -0.51279067993 -0.51258057356 -0.51327097416 -0.51300650835
          -0.51258248091 -0.51213097572 -0.5473408699 -0.54769229889 -0.5473331809 -0.54783189297
          -0.54761958122 -0.54840099812 -0.54849201441 -0.54804903269 -0.54875421524 -0.5480478406
          -0.54826581478 -0.54805332422 -0.54874795675 -0.54848229885 -0.54805487394 -0.54760712385
          -0.58294439316 -0.58329635859 -0.58293902874 -0.58343470097 -0.58322060108 -0.58400464058
          -0.5840934515 -0.58365207911 -0.5843578577 -0.58365136385 -0.58386945724 -0.58365517855
          -0.58435362577 -0.58408653736 -0.58365631104 -0.5832118392 -0.6186376214 -0.61899012327
          -0.61863428354 -0.61912745237 -0.61891198158 -0.61969834566 -0.619784832 -0.61934530735
          -0.620051682 -0.61934477091 -0.61956310272 -0.61934703588 -0.62004894018 -0.61978071928
          -0.61934828758 -0.61890602112 -0.65438938141 -0.65474253893 -0.65438741446 -0.65487903357
          -0.65466189384 -0.65545040369 -0.65553581715 -0.65509694815 -0.65580397844 -0.65509694815
          -0.65531539917 -0.65509802103 -0.65580266714 -0.65553361177 -0.6550989747 -0.65465855598
          -0.69017481804 -0.6905284524 -0.69017392397 -0.69066435099 -0.69044619799 -0.69123637676
          -0.69132059813 -0.6908826828 -0.69159013033 -0.69088256359 -0.69110119343 -0.69088292122
          -0.69158935547 -0.69131982327 -0.69088351727 -0.69044452906 -0.72597527504 -0.72632902861
          -0.72597485781 -0.72646456957 -0.72624599934 -0.72703707218 -0.72712063789 -0.72668302059
          -0.72739094496 -0.72668296099 -0.72690188885 -0.7266830802 -0.72739070654 -0.72712051868
          -0.72668343782 -0.72624546289 -0.76177912951 -0.76213294268 -0.76177889109 -0.76226812601
          -0.76204973459 -0.76284104586 -0.76292443275 -0.76248711348 -0.76319473982 -0.76248705387
          -0.76270580292 -0.76248681545 -0.76319468021 -0.76292449236 -0.76248711348 -0.76204955578
          -0.084170095623 -0.088757179677 -0.084086880088 -0.090543866158 -0.087751254439 -0.097836688161
          -0.099004939198 -0.093346208334 -0.10235958546 -0.093323156238 -0.096099056304 -0.09338016808
          -0.1022734344 -0.098868981004 -0.093370914459 -0.087643235922 -0.085324205458 -0.086831443012
          -0.091585166752 -0.079109176993 -0.082961603999 -0.091524995863 -0.086768634617 -0.044050414115
          -0.04391567409 -0.04373210296 -0.043666280806 -0.043853420764 -0.043876953423 -0.043840132654
          -0.043846618384 -0.043860573322 -0.04403270036 -0.043762303889 -0.043919797987 -0.04370706901
          -0.027261583135 -0.027206623927 -0.027003033087 -0.026897348464 -0.027055673301 -0.027069889009
          -0.027029788122 -0.02704885602 -0.027060078457 -0.027257950976 -0.027029024437 -0.027221655473
          -0.026925701648 -0.014868278988 -0.014797545969 -0.014598002657 -0.014498190954 -0.014661737718
          -0.01467169635 -0.014636754058 -0.014658579603 -0.014666289091 -0.014867579564 -0.014618220739
          -0.014809081331 -0.014518509619 -0.0064563443884 -0.0063925334252 -0.0062018437311 -0.0061039295979
          -0.0062602479011 -0.0062647126615 -0.0062358174473 -0.0062582991086 -0.0062647354789 -0.0064597330056
          -0.0062175136991 -0.0064042406157 -0.0061176121235 -0.0017614165554 -0.0016872525448 -0.0014492999762
          -0.0013306186302 -0.0015137217706 -0.0015206439421 -0.0014825103572 -0.0015206341632 -0.0015187037643
          -0.0017694721464 -0.0014628687641 -0.0017007880379 -0.0013392083347 -2.0167424588e-12 3.9321987506e-12
          -5.8092745024e-14 -1.080999114e-12 1.4111921267e-13 1.5080038997e-12 -6.2061290894e-14 -9.9037870461e-15
          -4.629130348e-15 0 0 0 2.6951145037e-14
        </DataArray>
        <DataArray type="Float32" Name="uz" format="ascii" RangeMin="-0.070487111807" RangeMax="0.06899061054">
          -0.014330375008 -0.0082423863932 -0.014974773861 -0.0044601066038 0.0069926418364 0.0040739653632
          0.011725868098 -0.0074328929186 0.0008889894234 0.0022352833766 0.0040108598769 0.021735882387
          0.013872600161 0.015379177406 -0.022172145545 -0.015823800117 -0.0013593458571 -0.0026820220519
          -0.0024262068328 0.011073727161 0.015035686083 0.0041391728446 0.02160638012 -0.0046033840626
          -0.011536881328 -0.022063450888 -0.0002115569514 0.050957806408 0.051067981869 0.061029046774
          0.05053486675 0.050669886172 0.060172114521 0.039129141718 0.039223343134 0.037133868784
          0.037305794656 0.036210875958 0.045119218528 0.049265433103 0.036458451301 0.044961560518
          0.048945628107 0.031293641776 0.031775984913 0.041123397648 0.041149377823 0.029944628477
          0.030458237976 0.05741564557 0.056732360274 0.021222455427 0.022179344669 0.018755998462
          0.019790546969 0.02483676374 0.025547614321 0.063490733504 0.062554463744 0.051355317235
          0.051460433751 0.061811245978 0.039049800485 0.036986485124 0.03599087894 0.045237060636
          0.049569804221 0.030866546556 0.041111931205 0.029489152133 0.058031659573 0.02041047439
          0.017859987915 0.024192741141 0.064361043274 0.051705360413 0.051800314337 0.062509678304
          0.038973934948 0.036849740893 0.035794101655 0.045344114304 0.049835391343 0.030488714576
          0.041097033769 0.029081463814 0.058577675372 0.019686011598 0.017060127109 0.023617075756
          0.065133519471 0.052012551576 0.052101030946 0.063123092055 0.038906246424 0.036728054285
          0.035620298237 0.04543922469 0.0500700064 0.030154427513 0.041083551943 0.028720803559
          0.059060387313 0.019044985995 0.016352135688 0.023107748479 0.06581427902 0.052280362695
          0.052362963557 0.063659638166 0.038845948875 0.03662031889 0.035467162728 0.045521754771
          0.050274785608 0.029861254618 0.041070997715 0.028403917328 0.059482373297 0.01848321408
          0.015731470659 0.022660354152 0.066409699619 0.052511997521 0.052589647472 0.064124055207
          0.0387926884 0.036525599658 0.035333693027 0.04559250176 0.050451729447 0.029606211931
          0.041059136391 0.028128083795 0.059847764671 0.017994979396 0.015192332678 0.022271146998
          0.0669253245 0.052709907293 0.052783086896 0.06452216953 0.038746193051 0.036443646997
          0.035218283534 0.045652538538 0.050602633506 0.029386261478 0.041048154235 0.027890551835
          0.060160357505 0.017574891448 0.014728310518 0.021936576813 0.067367345095 0.05287726596
          0.052946738899 0.064859360456 0.038706060499 0.036373693496 0.035119071603 0.045702215284
          0.050729777664 0.029198525473 0.04103795439 0.027688123286 0.060424745083 0.017217451707
          0.014334167354 0.021651815623 0.067741379142 0.053017038852 0.053082998842 0.065140686929