<VTKFile type="UnstructuredGrid" version="1.0" byte_order="LittleEndian" header_type="UInt64">
  <UnstructuredGrid>
    <Piece NumberOfPoints="791" NumberOfCells="973">
      <PointData>
        <DataArray type="Float32" Name="ux" format="ascii" RangeMin="0" RangeMax="0.59858620167">
          0.39479529858 0.16386906803 0.082074329257 0.44191429019 0.56929188967 0.39855134487
          0.23903368413 0.39587670565 0.58372288942 0.31157013774 0.17591443658 0.40134012699
          0.15673840046 0.28623268008 0.3827136755 0.44684818387 0.51796388626 0.5364946723
          0.26218658686 0.50144886971 0.074634805322 0.28590467572 0.09296862036 0.31501367688
          0.51442414522 0.27423250675 0.16812479496 0.092822648585 0.58256816864 0.23821918666
          0.52638322115 0.57821786404 0.22486233711 0.58738970757 0.38594534993 0.54929232597
          0.55571806431 0.52193057537 0.065314017236 0.09084174782 0.13875223696 0.56230133772
          0.37535971403 0.34549045563 0.1889026463 0.53574597836 0.19559939206 0.28591197729
          0.32657542825 0.47757679224 0.24304017425 0.20128844678 0.26888924837 0.2891407907
          0.31246241927 0.44865483046 0.37374410033 0.28403487802 0.15479756892 0.37020018697
          0.45275583863 0.13933585584 0.27545076609 0.39171722531 0.51953518391 0.13480705023
          0.54554444551 0.089839354157 0.52232474089 0.46557843685 0.08447869122 0.51559633017
          0.45913282037 0.26889586449 0.51594620943 0.11727045476 0.41118237376 0.38782021403
          0.34483209252 0.11817910522 0.19893251359 0.11995965987 0.49843871593 0.092911653221
          0.43398985267 0.57592946291 0.45760521293 0.47873160243 0.34080401063 0.14248588681
          0.079368591309 0.53247004747 0.55696809292 0.51540601254 0.18166354299 0.09323361516
          0.57025146484 0.57969450951 0.59621673822 0.50400769711 0.25258734822 0.12673339248
          0.18592320383 0.56462746859 0.12413005531 0.53193479776 0.15440943837 0.25848585367
          0.10870423168 0.089750640094 0.30004364252 0.14181253314 0.43763694167 0.36959186196
          0.13423191011 0.08335788548 0.3024225235 0.35364615917 0.28938153386 0.15290302038
          0.46771156788 0.57318258286 0.15720798075 0.55539757013 0.57450270653 0.57007038593
          0.28066164255 0.13108053803 0.51153624058 0.54777926207 0.41214725375 0.48307958245
          0.24327354133 0.36680352688 0.11373922974 0.33039051294 0.44705346227 0.1499607116
          0.35390684009 0.41992211342 0.35609185696 0.06796041131 0.59508317709 0.4534855485
          0.19476281106 0.27737608552 0.40591356158 0.51186275482 0.24124251306 0.083831354976
          0.36431357265 0.51561123133 0.18783561885 0.40992927551 0.43038007617 0.18736876547
          0.49318903685 0.34248024225 0.59829699993 0.53853142262 0.18604929745 0.18710029125
          0.12349852175 0.084556691349 0.31667393446 0.33989158273 0.34901580215 0.13343319297
          0.12484994531 0.24706427753 0.47646203637 0.074083007872 0.26609763503 0.29792669415
          0.202351138 0.20397952199 0.098904699087 0.18713314831 0.46794643998 0.53122609854
          0.20154941082 0.46897742152 0.17368625104 0.25761979818 0.061885006726 0.2717794776
          0.38336083293 0.59356367588 0.24894677103 0.11722224951 0.24064153433 0.40445563197
          0.231091097 0.21477381885 0.12688341737 0.55241018534 0.46526783705 0.41736260056
          0.26955002546 0.27292555571 0.3323367238 0.20229788125 0.14741703868 0.43319287896
          0.42418849468 0.55358809233 0.064261205494 0.48529973626 0.38351169229 0.099355727434
          0.41656154394 0.2486397922 0.50136625767 0.30547600985 0.59755426645 0.1551630646
          0.46743088961 0.19386853278 0.086862847209 0.26582619548 0.1114557609 0.4807433784
          0.17897315323 0.1578425765 0.50364553928 0.33599424362 0.25770628452 0.29714089632
          0.32992181182 0.25584107637 0.32651826739 0.3126116693 0.085935652256 0.21138635278
          0.24046196043 0.26054009795 0.40266245604 0.31987333298 0.39166933298 0.24152372777
          0.1446698308 0.40740606189 0.18718256056 0.49289810658 0.54710865021 0.44719624519
          0.24516716599 0.17926816642 0.43466922641 0.19373261929 0.44723755121 0.17106033862
          0.21374303102 0.48419946432 0.11306870729 0.26951515675 0.24596041441 0.56251186132
          0.42096680403 0.36258172989 0.52860057354 0.079991899431 0.35680150986 0.28583601117
          0.49731475115 0.36224412918 0.12880544364 0.24294395745 0.10062007606 0.21624876559
          0.37734958529 0.37587234378 0.24668703973 0.38686826825 0.25725784898 0.11880864948
          0.5456994772 0.55161225796 0.44081383944 0.29590952396 0.079449050128 0.30996608734
          0.52552801371 0.49480855465 0.3688980639 0.26929113269 0.51704591513 0.41890799999
          0.53955060244 0.29813316464 0.40464305878 0.26241838932 0.16795541346 0.18815310299
          0.13637125492 0.14606228471 0.51920384169 0.1115103513 0.26314631104 0.49503850937
          0.54918426275 0.4530466795 0.45272380114 0.13576176763 0.062928602099 0.29563325644
          0.15964134037 0.084729485214 0.50080829859 0.15092156827 0.10704559833 0.57392984629
          0.11586103588 0.45309230685 0.58683145046 0.5707834959 0.077011674643 0.3062260747
          0.19832752645 0.16959352791 0.4792227149 0.33426141739 0.43658867478 0.50121772289
          0.34517210722 0.47940903902 0.46448010206 0.14652393758 0.11766567081 0.4748723805
          0.37488058209 0.51418942213 0.59135335684 0.10649159551 0.31426638365 0.36838948727
          0.51086002588 0.12447063625 0.084411531687 0.26405626535 0.15911510587 0.24099215865
          0.40617126226 0.57823783159 0.22105182707 0.31750062108 0.29764190316 0.34945943952
          0.075321063399 0.12453427166 0.12224391103 0.48558843136 0.059959173203 0.15781909227
          0.095991045237 0.27917435765 0.23973460495 0.27691969275 0.080903612077 0.34209495783
          0.082431480289 0.25164175034 0.19272355735 0.48224067688 0.17015255988 0.49902096391
          0.49361005425 0.31478893757 0.56527239084 0.15384033322 0.56762498617 0.15310479701
          0.30605995655 0.50170755386 0.29250451922 0.17527639866 0.076471112669 0.44114384055
          0.13651177287 0.16346643865 0.34509661794 0.39957225323 0.43985000253 0.54893881083
          0.44861111045 0.4542170167 0.19572600722 0.56838196516 0.36078077555 0.40876144171
          0.33001893759 0.15402163565 0.51706016064 0.51160299778 0.11952417344 0.47242900729
          0.22278185189 0.57362896204 0.35008248687 0.45854824781 0.36325454712 0.15591071546
          0.32773080468 0.51853525639 0.12085523456 0.12499191612 0.23929819465 0.51881808043
          0.59299522638 0.39565980434 0.18370884657 0.2380450964 0.49445471168 0.11689645052
          0.58202809095 0.17862631381 0.08133675158 0.29162526131 0.46684792638 0.41826030612
          0.29003599286 0.16162393987 0.24411021173 0.27279165387 0.5271704793 0.40527707338
          0.46184056997 0.45704856515 0.12831760943 0.56900584698 0.43061679602 0.59796506166
          0.15318782628 0.11861082166 0.57246237993 0.58185225725 0.10354205221 0.092005841434
          0.3513148129 0.23612122238 0.44683206081 0.45417580009 0.50119954348 0.59782803059
          0.59294730425 0.5033031106 0.41851392388 0.11873398721 0.44415944815 0.20070397854
          0.55501157045 0.11288660765 0.34644830227 0.54999119043 0.48472172022 0.33693113923
          0.15513475239 0.11823278666 0.27612110972 0.36860087514 0.27506476641 0.53814858198
          0.37107056379 0.063607119024 0.4409891367 0.43854811788 0.52493560314 0.39085194468
          0.23123119771 0.36913710833 0.59858620167 0.3466142416 0.50407367945 0.31460139155
          0.52902132273 0.34317627549 0.10201794654 0.12022358179 0.47710415721 0.21839416027
          0.27772015333 0.36945480108 0.14439380169 0.13615258038 0.58944910765 0.52713644505
          0.1299675554 0.36607608199 0.11459624022 0.44992181659 0.34215080738 0.11912889779
          0.24121758342 0.07610591501 0.13638214767 0.3509426713 0.54917138815 0.18118940294
          0.23440623283 0.54291498661 0.47822409868 0.21149912477 0.51131105423 0.14664174616
          0.51816952229 0.21859714389 0.23744435608 0.40213960409 0.5317222476 0.48068746924
          0.53828012943 0.54891002178 0.16558772326 0.23340913653 0.52600651979 0.082134783268
          0.17248614132 0.38660046458 0.16101437807 0.48640179634 0.4762160182 0.50324702263
          0.48053583503 0.57719606161 0.168550089 0.11514508724 0.32047832012 0.16651748121
          0.54517227411 0.30071753263 0.21064668894 0.52034455538 0.3081522584 0.39072838426
          0.49458348751 0.5893586874 0.52763926983 0.1090393737 0.20677886903 0.50264161825
          0.33401057124 0.2985163033 0.20498146117 0.31391716003 0.092480771244 0.16462127864
          0.29551798105 0.16879869998 0.30410638452 0.36869806051 0.4575818181 0.36462959647
          0.11566352844 0.22046507895 0.22833536565 0.14389902353 0.095241621137 0.22148963809
          0.35763865709 0.33308964968 0.2651424408 0.50917130709 0.52769595385 0.39439988136
          0.49376174808 0.32555735111 0.28161615133 0.063344709575 0.26983213425 0.11744134128
          0.3530857563 0.56068688631 0.26231327653 0.54884457588 0.48104766011 0.36990985274
          0.56894105673 0.27956604958 0.21456593275 0.35490983725 0.1114545241 0.29149600863
          0.14760407805 0.2650590539 0.10356323421 0.50889724493 0.5371940732 0.58804374933
          0.22935326397 0.47879892588 0.32675680518 0.18076120317 0.41086694598 0.57628715038
          0.26178219914 0.26050642133 0.54075568914 0.36526247859 0.39265546203 0.38776433468
          0.22574266791 0.53884780407 0.20358258486 0.36734613776 0.12282115221 0.34692183137
          0.067879587412 0.5956209898 0.59297037125 0.36767753959 0.45875307918 0.39769411087
          0.14652167261 0.37737235427 0.094567544758 0.30735453963 0.27790087461 0.40809911489
          0.48425418139 0.57386142015 0.30230641365 0.074755169451 0.3570484519 0.46184253693
          0.073155961931 0.43031391501 0.28148773313 0.45556020737 0.32621693611 0.55877703428
          0.32441610098 0.095041930676 0.10762641579 0.50428521633 0.34333211184 0.29149314761
          0.44420728087 0.28061959147 0.41853347421 0.35527658463 0.52773314714 0.15320919454
          0.33892562985 0.12358440459 0.38499802351 0.25243601203 0.45915412903 0.27553415298
          0.54038882256 0.53219735622 0.23913197219 0.56087452173 0.52968776226 0.28967133164
          0.48138454556 0.3125294745 0.11106805503 0.39889672399 0.13502576947 0.098553590477
          0.19176033139 0.3245254755 0.47903046012 0.41747146845 0.063840813935 0.25820055604
          0.24041394889 0.46654549241 0.2298810184 0.33003363013 0.17879703641 0.17177417874
          0.56052011251 0.35168451071 0.15044541657 0.29724517465 0.57354593277 0.45443919301
          0.24138906598 0.31002417207 0.25801688433 0.54871326685 0.54243892431 0.24383635819
          0.28587776423 0.37013417482 0.1477214396 0.40076634288 0.10085462034 0.44293090701
          0.47235423326 0.13631521165 0.45412778854 0.4575920701 0.36698368192 0.20883089304
          0.44226333499 0.13983768225 0.28917855024 0.47270825505 0.079106420279 0.39874267578
          0.45661324263 0.57532650232 0.35226020217 0.36059457064 0.36662942171 0.12213756144
          0.44098517299 0.55940169096 0.47443166375 0.24525892735 0.42272773385 0.32667928934
          0.59790635109 0.31005960703 0.43379625678 0.12730903924 0.47365963459 0.088785290718
          0.31002733111 0.15908931196 0.33598896861 0.25820633769 0.36544343829 0.27596849203
          0.46652519703 0.23470157385 0.56024080515 0.3756133616 0.55526018143 0.30406185985
          0.17364941537 0.078158229589 0.28512477875 0.31064158678 0.23086817563 0.24293649197
          0.45336225629 0.36543014646 0.37629079819 0.52037775517 0.22159785032 0.32816234231
          0.38929012418 0.41698873043 0.56808316708 0.35341802239 0.35614261031 0.43677508831
          0.18189750612 0.36059722304 0.17831110954 0.25173187256 0.5137861371 0.35457962751
          0.15661181509 0.12332648784 0.070377603173 0.34910440445 0.17306794226 0.36554449797
          0.51669347286 0.41636520624 0.59261423349 0.37259799242 0.25526168942 0.55498433113
          0.58895546198 0.2784678936 0.55170470476 0.3278965652 0.10636529326 0.17249543965
          0.247605443 0.17212113738 0.15767265856 0.54378664494 0 0
          0 0 0 0 0 0
          0 0 0 0 0
        </DataArray>
        <DataArray type="Float32" Name="uy" format="ascii" RangeMin="0" RangeMax="0.59823411703">
          0.54204964638 0.15222141147 0.3327601552 0.2449105531 0.46110522747 0.56468480825
          0.07579703629 0.58941912651 0.31387624145 0.5066550374 0.14678040147 0.11411384493
          0.32770800591 0.25075864792 0.55533152819 0.39913037419 0.26576289535 0.14745107293
          0.586766541 0.44201162457 0.070289693773 0.34440338612 0.32518780231 0.18797960877
          0.5151540041 0.25033268332 0.072585150599 0.5456892848 0.39664590359 0.23592172563
          0.2344930619 0.50143021345 0.48066216707 0.24982510507 0.58042114973 0.39122271538
          0.40821623802 0.5835185051 0.18919232488 0.2316403389 0.59247428179 0.085668213665
          0.26295089722 0.54228144884 0.4123339951 0.13562045991 0.56384086609 0.4962131381
          0.42200922966 0.13443952799 0.4648193121 0.37933921814 0.47114270926 0.33844864368
          0.25344756246 0.44202426076 0.33159530163 0.31966814399 0.2657764256 0.46660631895
          0.47106322646 0.33327642083 0.15513323247 0.071821220219 0.47854551673 0.54364657402
          0.064220309258 0.44663417339 0.33539783955 0.1840364635 0.12518471479 0.08577093482
          0.42153990269 0.10366341472 0.3916900754 0.17675669491 0.51666367054 0.15377780795
          0.35592722893 0.23575051129 0.060797177255 0.1625302881 0.092761233449 0.4261906743
          0.22482162714 0.34674966335 0.32290640473 0.28433090448 0.090699635446 0.1661016494
          0.11668787152 0.59496444464 0.10381764174 0.12278948724 0.073859281838 0.5785959363
          0.24327611923 0.27539113164 0.12510871887 0.48469418287 0.15155467391 0.56681507826
          0.16875994205 0.48361387849 0.3388813436 0.54975903034 0.075160771608 0.40749213099
          0.25906249881 0.1622299552 0.297247082 0.3902592659 0.30158749223 0.25267037749
          0.5262401104 0.53431272507 0.57013684511 0.13848377764 0.27378004789 0.30400529504
          0.36234724522 0.19147954881 0.097791127861 0.25402516127 0.39252635837 0.56093788147
          0.2738815546 0.54438120127 0.42092847824 0.1911572516 0.21836994588 0.36161723733
          0.29234269261 0.19083513319 0.38971030712 0.10588517785 0.36059573293 0.5217962265
          0.30515423417 0.54672813416 0.19437088072 0.57066863775 0.14972317219 0.066426098347
          0.50487732887 0.43310543895 0.24622794986 0.57841068506 0.16172498465 0.50318217278
          0.23676875234 0.098631255329 0.48866224289 0.57944387197 0.32924285531 0.39459365606
          0.14122572541 0.13557691872 0.54174178839 0.076266616583 0.28170871735 0.43331700563
          0.098742634058 0.43799200654 0.46324473619 0.3457197547 0.51707589626 0.24122327566
          0.39992958307 0.28972643614 0.26738420129 0.12967342138 0.50243473053 0.53876000643
          0.30271157622 0.50044053793 0.17881399393 0.50552362204 0.25779852271 0.24093331397
          0.33070030808 0.067629672587 0.37039381266 0.21922107041 0.12355973572 0.089873619378
          0.54144859314 0.2926453054 0.5055795908 0.11109959334 0.55911642313 0.23313367367
          0.49293544888 0.28475549817 0.35735318065 0.30142816901 0.20659731328 0.18043063581
          0.066597089171 0.20516143739 0.25430998206 0.10186686367 0.13776233792 0.43825152516
          0.075165770948 0.14481920004 0.11137098074 0.20664320886 0.3341627717 0.10395248979
          0.21742397547 0.46699902415 0.52081429958 0.50164347887 0.46163952351 0.55100721121
          0.17256397009 0.071533858776 0.39878663421 0.20272131264 0.56089818478 0.39867156744
          0.28213250637 0.5348533392 0.25770032406 0.52336680889 0.15002903342 0.2884350121
          0.22124142945 0.20607466996 0.58389997482 0.25021356344 0.30776408315 0.54058372974
          0.46563538909 0.16525924206 0.27198252082 0.55256468058 0.31684428453 0.43622162938
          0.16391694546 0.39552211761 0.37129083276 0.38490203023 0.21661572158 0.48323535919
          0.42285451293 0.37403747439 0.28402638435 0.23923687637 0.35676151514 0.59252536297
          0.44285228848 0.073608957231 0.31850066781 0.54444587231 0.34258496761 0.10893908888
          0.073962397873 0.34717670083 0.41108852625 0.44170373678 0.55482727289 0.11561450362
          0.59457147121 0.10330181569 0.089904353023 0.13607522845 0.16131909192 0.08877915144
          0.44475966692 0.14176087081 0.45701670647 0.23548072577 0.29921102524 0.11899097264
          0.43936628103 0.2701574266 0.38584184647 0.093944080174 0.44215238094 0.068943202496
          0.34811529517 0.44358929992 0.26470473409 0.57185155153 0.25823774934 0.34440919757
          0.47145801783 0.43132671714 0.32840159535 0.11375002563 0.10680469871 0.15683446825
          0.59472769499 0.34535235167 0.25072926283 0.55250382423 0.20534697175 0.24611346424
          0.54635077715 0.33714419603 0.51535904408 0.49038055539 0.50892293453 0.16245059669
          0.16541318595 0.38388720155 0.42539587617 0.56171393394 0.49052038789 0.34585338831
          0.27914240956 0.08638998121 0.54938852787 0.4650272131 0.31034225225 0.34552791715
          0.16593430936 0.25256741047 0.12042476237 0.38505941629 0.13175539672 0.3233525753
          0.59563797712 0.26518154144 0.26362490654 0.19098974764 0.3892994523 0.30384430289
          0.19065663218 0.45030614734 0.47377464175 0.092389978468 0.33328413963 0.31261366606
          0.4845379889 0.34006887674 0.15448109806 0.57956171036 0.063926510513 0.52156710625
          0.12911869586 0.22448971868 0.17429463565 0.21990394592 0.38572636247 0.28184875846
          0.29703420401 0.21711328626 0.53534799814 0.41468149424 0.088159628212 0.42999708652
          0.20832927525 0.43692186475 0.12048922479 0.15749876201 0.23254041374 0.41000804305
          0.25240549445 0.40924432874 0.2902944386 0.37036374211 0.3963611424 0.4452907145
          0.44654372334 0.17988035083 0.078794404864 0.46089893579 0.1308683455 0.14788466692
          0.15188111365 0.54497867823 0.50081735849 0.51969927549 0.32413110137 0.238576442
          0.22973282635 0.11209712178 0.45962408185 0.56152331829 0.11594110727 0.35251259804
          0.066912963986 0.16721187532 0.11346430331 0.46569788456 0.21386936307 0.26709923148
          0.23260875046 0.32198622823 0.15298825502 0.39649960399 0.39366787672 0.52648544312
          0.59312897921 0.45099803805 0.16748610139 0.13126406074 0.48673650622 0.45084786415
          0.52964186668 0.076627746224 0.42518824339 0.51379001141 0.49690976739 0.3686991334
          0.1146228984 0.062042590231 0.23637285829 0.54368048906 0.17291116714 0.38997197151
          0.071454383433 0.51000225544 0.52420270443 0.53555500507 0.26446691155 0.12330395728
          0.33289369941 0.29253873229 0.12424720079 0.37185323238 0.49362593889 0.51310878992
          0.59483349323 0.57954710722 0.52696871758 0.42960649729 0.24851249158 0.24582086504
          0.48502847552 0.33620476723 0.10638661683 0.082232512534 0.10042556375 0.20378378034
          0.56240683794 0.14385016263 0.38400295377 0.27163273096 0.13650418818 0.073037721217
          0.46592468023 0.30149254203 0.3790358603 0.45337694883 0.51473808289 0.25846290588
          0.47705799341 0.10477375239 0.15321442485 0.32889524102 0.10105746984 0.16246026754
          0.38323107362 0.14150288701 0.11199023575 0.18501363695 0.45442077518 0.11266496032
          0.29537293315 0.10861187428 0.43001514673 0.3818140626 0.10166080296 0.44878953695
          0.14378792048 0.41209042072 0.29028621316 0.13545171916 0.13162657619 0.47390785813
          0.38168957829 0.11387657374 0.5252212882 0.48197743297 0.56304126978 0.37004646659
          0.28240481019 0.19649545848 0.44682091475 0.085930272937 0.089130163193 0.25740462542
          0.33389592171 0.39324864745 0.39263731241 0.23157271743 0.32275035977 0.10409479588
          0.33226040006 0.5141621232 0.57953345776 0.10412365943 0.22654110193 0.39211550355
          0.39948120713 0.39346912503 0.33229511976 0.50409561396 0.44346740842 0.33612322807
          0.47858354449 0.088506214321 0.21163113415 0.074314042926 0.083654738963 0.32654207945
          0.3532897234 0.22232782841 0.28986153007 0.48022001982 0.1860101372 0.4212089777
          0.29466938972 0.59301233292 0.31458231807 0.39651790261 0.57726860046 0.11503590643
          0.25350663066 0.12038055062 0.38281589746 0.17236731946 0.11986613274 0.18685871363
          0.57187181711 0.30870243907 0.53373599052 0.075537197292 0.2688382268 0.21543774009
          0.36052837968 0.53657144308 0.54094183445 0.11386994272 0.27879691124 0.27958542109
          0.42733323574 0.068549714983 0.18125480413 0.5379255414 0.25261339545 0.065987542272
          0.22639663517 0.40490266681 0.26174741983 0.37297353148 0.13170386851 0.20660594106
          0.32568827271 0.32269394398 0.55016708374 0.11675856262 0.42364001274 0.20452900231
          0.28118056059 0.47899600863 0.47520494461 0.17062394321 0.11597982794 0.44160214067
          0.31840226054 0.24944378436 0.1315831244 0.40815734863 0.20091834664 0.23528385162
          0.14738894999 0.57365208864 0.38255122304 0.49526637793 0.095589280128 0.22288100421
          0.18630537391 0.44505602121 0.40348100662 0.15464036167 0.57294338942 0.30592152476
          0.57278752327 0.42462366819 0.47780156136 0.48234468699 0.37596225739 0.37117516994
          0.14840838313 0.36763578653 0.30565452576 0.12771300972 0.30226057768 0.35980859399
          0.29018431902 0.33547648787 0.35311463475 0.33077505231 0.33876380324 0.32491806149
          0.10335932672 0.56974285841 0.3388544023 0.38668975234 0.41934084892 0.18708331883
          0.28564554453 0.48301255703 0.4600700736 0.12433247268 0.40232777596 0.47587153316
          0.10572583973 0.31577971578 0.073919825256 0.074733324349 0.53188842535 0.22103354335
          0.084453590214 0.32513329387 0.35188809037 0.43043383956 0.19251817465 0.53727042675
          0.1218778342 0.18431772292 0.33962625265 0.25673955679 0.18492518365 0.1417286545
          0.50037127733 0.24013341963 0.093948878348 0.54316651821 0.19132818282 0.10801882297
          0.16981981695 0.39730486274 0.093228146434 0.19297865033 0.12009572983 0.29189065099
          0.4019305706 0.24480675161 0.33270996809 0.10969189554 0.53118562698 0.21002537012
          0.348462075 0.22313302755 0.22149197757 0.25125783682 0.45816475153 0.46946826577
          0.50677323341 0.34445360303 0.4752856195 0.46045008302 0.19175063074 0.36923751235
          0.36174079776 0.13844797015 0.25735417008 0.28100764751 0.53538316488 0.4503415823
          0.34999975562 0.53506046534 0.30486434698 0.49694234133 0.44922402501 0.47374472022
          0.29730939865 0.18780064583 0.31261095405 0.4033690393 0.53859788179 0.51368045807
          0.062493547797 0.14357279241 0.45635411143 0.082232967019 0.56280177832 0.22873160243
          0.18524372578 0.57014983892 0.5588952899 0.36401435733 0.20591883361 0.1144849062
          0.26151236892 0.59823411703 0.3093341291 0.30586475134 0.27625635266 0.1329728961
          0.25406605005 0.52379816771 0.29913821816 0.22137950361 0.34485185146 0.31587925553
          0.11172622442 0.10172519088 0.36973771453 0.2199267447 0.3419713378 0.43943414092
          0.21617607772 0.17818923295 0.38095206022 0.29005455971 0.53544437885 0.13834832609
          0.20247831941 0.35282215476 0.59288161993 0.29040849209 0.22767288983 0.59187966585
          0.54407286644 0.19689638913 0.24259226024 0.49276101589 0.56017923355 0.39226722717
          0.15173256397 0.53846418858 0.28795018792 0.41056957841 0.12283810228 0.28173515201
          0.55248117447 0.58727449179 0.14497797191 0.481975317 0.25566497445 0.11645606905
          0.26339823008 0.52729260921 0.10768064857 0.56550139189 0.2321306169 0.328977108
          0.12259422988 0.54785317183 0.30064597726 0.5953347683 0.19917166233 0.20965842903
          0.27309408784 0.58538192511 0.25516018271 0.20452821255 0.27662035823 0.3667652607
          0.29382774234 0.17645378411 0.4647205472 0.54109978676 0.49389615655 0.49011948705
          0.24031554163 0.35349267721 0.072190597653 0.079128883779 0.53943270445 0.37581884861
          0.38503265381 0.21151201427 0.53047680855 0.34743112326 0.20960335433 0.47230535746
          0.34719857574 0.39367303252 0.49934378266 0.23399426043 0 0
          0 0 0 0 0 0
          0 0 0 0 0
        </DataArray>
        <DataArray type="Float32" Name="uz" format="ascii" RangeMin="0" RangeMax="0.5985788703">
          0.25386250019 0.16953487694 0.58752191067 0.41615778208 0.45973458886 0.37115642428
          0.17020906508 0.20148006082 0.19601981342 0.12746681273 0.14337301254 0.1743902415
          0.063420653343 0.23570358753 0.15447118878 0.16700780392 0.4715307653 0.25926107168
          0.49353778362 0.50926184654 0.1470349282 0.55198550224 0.26702445745 0.29794773459
          0.25389736891 0.23438738286 0.47434937954 0.38755401969 0.50563901663 0.1270943284
          0.36322581768 0.40442013741 0.45521607995 0.59590667486 0.57800650597 0.37633755803
          0.31642630696 0.40769609809 0.30037507415 0.19002784789 0.21768938005 0.50922775269
          0.15978774428 0.2039911449 0.48382762074 0.3380883038 0.31376627088 0.20528736711
          0.10373747349 0.13609819114 0.33734330535 0.093166664243 0.29223808646 0.38397297263
          0.48059082031 0.43617925048 0.14658430219 0.49024921656 0.29224830866 0.57509040833
          0.21169747412 0.16021856666 0.36318579316 0.3890658915 0.45316234231 0.36804398894
          0.15016256273 0.1761572957 0.21942900121 0.26604542136 0.51545995474 0.1209294349
          0.12308119237 0.28278234601 0.091334655881 0.32014498115 0.21659918129 0.067986302078
          0.50036782026 0.18579038978 0.097792699933 0.33044061065 0.400082618 0.37225535512
          0.19550654292 0.39479696751 0.13406796753 0.35289409757 0.26709455252 0.45821008086
          0.21750552952 0.22361963987 0.36375156045 0.19152639806 0.20005548 0.084761045873
          0.43795141578 0.58184432983 0.27373489738 0.51047837734 0.22723911703 0.54534286261
          0.3142696321 0.52362531424 0.19634969532 0.56768453121 0.5471368432 0.10901813954
          0.21355941892 0.18761107326 0.20600606501 0.45012050867 0.1611687094 0.43017312884
          0.17727807164 0.44067722559 0.2991284132 0.47133976221 0.27060166001 0.56580001116
          0.1083945781 0.51622265577 0.45525607467 0.47980666161 0.52652007341 0.071733444929
          0.17982085049 0.22581519186 0.26138159633 0.074563659728 0.33321484923 0.44932723045
          0.29144489765 0.30495905876 0.41711193323 0.50331294537 0.37831249833 0.15484026074
          0.34854021668 0.40453052521 0.12534694374 0.30880436301 0.19685260952 0.23559303582
          0.58845037222 0.24694663286 0.18811091781 0.45731070638 0.34019833803 0.52095174789
          0.21735025942 0.50151467323 0.13417905569 0.54699116945 0.57033342123 0.22509242594
          0.16886587441 0.51092135906 0.18651217222 0.36784461141 0.30981507897 0.21500232816
          0.075024224818 0.53914272785 0.27445137501 0.5985788703 0.34742850065 0.5535659194
          0.5821813345 0.39313966036 0.39068374038 0.32198116183 0.29644271731 0.32971999049
          0.073443576694 0.23277381063 0.28963050246 0.28373450041 0.19664002955 0.061519227922
          0.070520728827 0.538425982 0.4314185977 0.12200894952 0.17715401947 0.36072662473
          0.41536587477 0.21080641448 0.091914646327 0.33134621382 0.29124239087 0.43651300669
          0.50603747368 0.1225668937 0.37977516651 0.22370491922 0.44494751096 0.423204422
          0.58872252703 0.44339948893 0.49737858772 0.43885079026 0.52495926619 0.24936775863
          0.47005164623 0.15210291743 0.40527963638 0.35737851262 0.40622085333 0.18028606474
          0.33533233404 0.48092934489 0.16882653534 0.25209909678 0.5371889472 0.53779709339
          0.2615827024 0.5971109271 0.20530609787 0.060915399343 0.47766491771 0.207099244
          0.57848644257 0.22979165614 0.085255071521 0.2748080194 0.091430805624 0.57777774334
          0.57435929775 0.34650030732 0.34994223714 0.55252152681 0.18889704347 0.18919412792
          0.13645689189 0.49129405618 0.59065413475 0.3756211102 0.59138947725 0.36651861668
          0.41221088171 0.1192240715 0.29234316945 0.44876271486 0.4877705276 0.09310323745
          0.2663782537 0.22102957964 0.10446591675 0.18785275519 0.15566277504 0.56881004572
          0.23706765473 0.41160541773 0.18568085134 0.24140453339 0.102145724 0.37302994728
          0.14418870211 0.21633727849 0.45291271806 0.11288543791 0.43741250038 0.54313617945
          0.51397073269 0.38847109675 0.51976180077 0.40698236227 0.37328410149 0.078231476247
          0.49598681927 0.53004008532 0.31632429361 0.57221317291 0.39105167985 0.59743106365
          0.58763223886 0.58624213934 0.43688666821 0.32365605235 0.48479875922 0.46320533752
          0.23139247298 0.26556438208 0.56059628725 0.36250802875 0.084296368062 0.3697578907
          0.29155310988 0.37339091301 0.44442033768 0.50077039003 0.1646849215 0.27485388517
          0.56945466995 0.54889839888 0.49315658212 0.47170260549 0.43314599991 0.37524268031
          0.36266830564 0.33804824948 0.39647167921 0.14341673255 0.50711542368 0.5569164753
          0.33867368102 0.28194630146 0.53565144539 0.48919376731 0.072475321591 0.4733133316
          0.097538009286 0.13509219885 0.2726829052 0.35638228059 0.50969725847 0.56167298555