<VTKFile type="UnstructuredGrid" version="1.0" byte_order="LittleEndian" header_type="UInt64">
  <UnstructuredGrid>
    <Piece NumberOfPoints="791" NumberOfCells="973">
      <PointData>
        <DataArray type="Float32" Name="ux" format="ascii" RangeMin="-0.35749554634" RangeMax="1.6066402197">
          -0.16550797224 -0.15774343908 -0.18026798964 -0.16776274145 -0.16856117547 -0.181468606
          -0.15970906615 -0.14658176899 -0.1296839118 -0.13333539665 -0.14445021749 -0.13329467177
          -0.14972794056 -0.1345410496 -0.19251097739 -0.18299739063 -0.19569568336 -0.18398723006
          -0.15259307623 -0.13120725751 -0.15270805359 -0.13469788432 -0.13515335321 -0.20584151149
          -0.19361844659 -0.2060931325 -0.15510380268 -0.14702668786 -0.13187724352 -0.1260727644
          -0.17379957438 -0.15812945366 -0.15263803303 -0.15109236538 -0.17752037942 -0.16477453709
          -0.191589728 -0.13210512698 -0.11013732851 -0.12057165056 -0.15802626312 -0.13551749289
          -0.14644484222 -0.12653191388 -0.1521525383 -0.13741961122 -0.16354824603 -0.15131355822
          -0.17754812539 -0.10396463424 -0.12950570881 -0.1476765722 -0.17367081344 -0.16527721286
          -0.19166767597 -0.17193952203 -0.19854986668 -0.10989765823 -0.13596838713 -0.10629944503
          -0.091400139034 -0.085830964148 -0.11020237207 -0.1236512661 -0.09148773551 -0.069963686168
          -0.0802346766 -0.0859734267 -0.096755176783 -0.1102957949 -0.064030848444 -0.10661781579
          -0.12389649451 -0.13053768873 -0.069905981421 -0.051025055349 -0.036387670785 -0.030842997134
          -0.054865293205 -0.068060263991 -0.036540139467 -0.015381149948 -0.025479534641 -0.031193386763
          -0.041679222137 -0.054981537163 -0.0094774411991 -0.051401842386 -0.068340629339 -0.0748494789
          -0.015238540247 0.018051184714 0.032554682344 0.03795415163 0.014418634586 0.0013544627
          0.032503467053 0.053245462477 0.043369412422 0.037757631391 0.027431730181 0.014372689649
          0.059084739536 0.017919892445 0.0012621259084 -0.0051461071707 0.05340057984 0.099277734756
          0.11393497139 0.11927502602 0.095713563263 0.082629553974 0.11388126761 0.13473701477
          0.12483907491 0.11907076836 0.10880913585 0.095701746643 0.14069858193 0.099141910672
          0.082573860884 0.076181188226 0.13493865728 0.19051726162 0.20534823835 0.21067877114
          0.1870110482 0.17381551862 0.2052411139 0.22640261054 0.21637941897 0.21039368212
          0.20017838478 0.18694786727 0.23247461021 0.19031442702 0.17370179296 0.16736613214
          0.22655154765 0.28886300325 0.30401420593 0.30928590894 0.28544968367 0.27209955454
          0.30391645432 0.32552927732 0.31531959772 0.30913063884 0.2987909019 0.28534209728
          0.33176025748 0.28862828016 0.2718757391 0.26553800702 0.32558444142 0.39138785005
          0.40712442994 0.41246116161 0.38795921206 0.37417834997 0.40711888671 0.429620713
          0.41894200444 0.41250777245 0.40180456638 0.38786816597 0.43600070477 0.39115023613
          0.37380677462 0.36737638712 0.42943418026 0.49586120248 0.51212149858 0.51754695177
          0.49230799079 0.47809296846 0.51214814186 0.53558713198 0.52441257238 0.51777070761
          0.50664931536 0.49218603969 0.54219043255 0.49550360441 0.47757482529 0.47099199891
          0.53523898125 0.60115075111 0.6177662611 0.62326681614 0.59754961729 0.58304864168
          0.617793262 0.64185613394 0.63033759594 0.6235255599 0.61215567589 0.59737849236
          0.64855247736 0.6006834507 0.58245933056 0.57582616806 0.64133054018 0.70578432083
          0.72279793024 0.72832393646 0.70218920708 0.68740993738 0.72289502621 0.7474399209
          0.73568087816 0.72872310877 0.71710813046 0.70202517509 0.75423592329 0.70541322231
          0.68676573038 0.68004113436 0.74683868885 0.80903631449 0.82646054029 0.83226263523
          0.80528664589 0.79011744261 0.82659649849 0.85183620453 0.83974909782 0.83264064789
          0.82065659761 0.80516910553 0.85884785652 0.80872040987 0.78952175379 0.78251159191
          0.85121893883 0.91207236052 0.92986178398 0.93578660488 0.908208251 0.89267373085
          0.92988473177 0.95550477505 0.94326001406 0.93596547842 0.92386436462 0.90806561708
          0.96265125275 0.91168028116 0.89217823744 0.884978652 0.95505177975 1.0159157515
          1.033880949 1.039919734 1.0120776892 0.99638354778 1.0339081287 1.0596401691
          1.0473994017 1.0400477648 1.0278542042 1.0119206905 1.0669105053 1.0156644583
          0.9960141778 0.98870140314 1.0593159199 1.1205854416 1.1388446093 1.1449218988
          1.1167470217 1.1008044481 1.1388331652 1.1647928953 1.1524695158 1.1450309753
          1.1327050924 1.1167405844 1.172287941 1.1205255985 1.1006451845 1.0931383371
          1.1646450758 1.2262365818 1.244732976 1.2509902716 1.2223635912 1.2061560154
          1.2447975874 1.2710180283 1.2585903406 1.2510393858 1.2385668755 1.2223802805
          1.2785753012 1.2262797356 1.2061936855 1.198494792 1.2709789276 1.3336486816
          1.3524591923 1.3588024378 1.3296967745 1.3132529259 1.3524645567 1.3790901899
          1.3664982319 1.3588021994 1.3461660147 1.3296967745 1.3868203163 1.3336639404
          1.3132219315 1.3054536581 1.379118681 1.4426577091 1.4617388248 1.4681736231
          1.4386870861 1.4219703674 1.4617815018 1.4887986183 1.4760286808 1.4682027102
          1.4553540945 1.4386826754 1.4966523647 1.4426543713 1.4219704866 1.4140491486
          1.488765955 1.5523958206 1.5716103315 1.5780026913 1.5484040976 1.5316448212
          1.5715996027 1.598725915 1.5859133005 1.5779920816 1.5651819706 1.5484271049
          1.6066402197 1.5523756742 1.5316853523 1.5237475634 1.5987170935 -0.18818727136
          -0.17089317739 -0.16665180027 -0.1900742799 -0.20494036376 -0.16920131445 -0.14625075459
          -0.15813224018 -0.16249577701 -0.17542457581 -0.18905851245 -0.14110356569 -0.1841468364
          -0.20266976953 -0.21062473953 -0.14867836237 -0.16926264763 -0.14697571099 -0.16755057871
          -0.17022268474 -0.18743732572 -0.18956071138 -0.2043235302 -0.24585899711 -0.22853828967
          -0.22287912667 -0.28122442961 -0.26396125555 -0.25795152783 -0.24933557212 -0.28502899408
          -0.26459050179 -0.30043044686 -0.22816197574 -0.20382164419 -0.21559019387 -0.26372146606
          -0.2392693907 -0.25103068352 -0.22211833298 -0.25754889846 -0.23412902653 -0.26976191998
          -0.24907937646 -0.28487485647 -0.19705875218 -0.2324642241 -0.24506515265 -0.28068581223
          -0.26406052709 -0.29999893904 -0.27155262232 -0.30766507983 -0.20428974926 -0.23949223757
          -0.30767738819 -0.29027938843 -0.28426292539 -0.31153464317 -0.32699996233 -0.29012086987
          -0.26560741663 -0.27734979987 -0.28395050764 -0.29614800215 -0.31136468053 -0.25871220231
          -0.30715933442 -0.32653924823 -0.33424657583 -0.26567047834 -0.32408258319 -0.30665615201
          -0.30056989193 -0.32791954279 -0.34342613816 -0.30653685331 -0.28200265765 -0.29369276762
          -0.30033320189 -0.3125204742 -0.3277631402 -0.27503412962 -0.32355037332 -0.34289816022
          -0.35063764453 -0.28195667267 -0.33113536239 -0.31359186769 -0.30750483274 -0.33486387134
          -0.35040912032 -0.31351655722 -0.28916507959 -0.30069997907 -0.30747595429 -0.31947764754
          -0.33458861709 -0.28201580048 -0.33046591282 -0.34965336323 -0.35749554634 -0.28884005547
          -0.32997360826 -0.31242823601 -0.30631247163 -0.33357852697 -0.34916466475 -0.31241825223
          -0.28839865327 -0.2996494472 -0.30652022362 -0.31826642156 -0.33322110772 -0.28110790253
          -0.32907491922 -0.34799423814 -0.35595783591 -0.28770124912 -0.32189014554 -0.30430549383
          -0.29820537567 -0.32539168 -0.34094566107 -0.30438131094 -0.28063213825 -0.29167029262
          -0.29863959551 -0.31016454101 -0.3250054121 -0.27326247096 -0.32085612416 -0.33955836296
          -0.34753090143 -0.27964565158 -0.3073207736 -0.28995519876 -0.28393682837 -0.3106764257
          -0.32603776455 -0.28998413682 -0.26671373844 -0.27749428153 -0.2843952775 -0.29567044973
          -0.31026884913 -0.2594204843 -0.30617412925 -0.32454234362 -0.33244085312 -0.2657057941
          -0.28706780076 -0.26992765069 -0.26397120953 -0.29045924544 -0.30561929941 -0.26995360851
          -0.24688638747 -0.25755056739 -0.26439294219 -0.27554786205 -0.28999593854 -0.23960347474
          -0.28598573804 -0.30415117741 -0.31192994118 -0.24585324526 -0.26143071055 -0.24442274868
          -0.2385071665 -0.26482281089 -0.27987483144 -0.24446488917 -0.22141094506 -0.23210728168
          -0.23892328143 -0.25006002188 -0.26446065307 -0.21420364082 -0.26054263115 -0.2785988152
          -0.28623357415 -0.22046937048 -0.23025371134 -0.2134796232 -0.20763280988 -0.23364719748
          -0.24843904376 -0.21357373893 -0.1907363534 -0.20132318139 -0.20811209083 -0.2190733403
          -0.23334558308 -0.18364949524 -0.22955814004 -0.24740956724 -0.25486689806 -0.18989889324
          -0.19426418841 -0.17777232826 -0.17210792005 -0.19759832323 -0.21208259463 -0.177807495
          -0.1552760452 -0.16575139761 -0.17243653536 -0.18327391148 -0.19733650982 -0.14833557606
          -0.19358102977 -0.2112057507 -0.2184420377 -0.15459239483 -0.15477782488 -0.13848248124
          -0.13288362324 -0.15810474753 -0.17240871489 -0.13844412565 -0.11592090875 -0.12646363676
          -0.13302439451 -0.14385695755 -0.15781772137 -0.10910528898 -0.15417158604 -0.17167186737
          -0.17873033881 -0.11546357721 -0.11185416579 -0.095630772412 -0.090065434575 -0.1151965782
          -0.12945850194 -0.095616705716 -0.073027871549 -0.083624899387 -0.090213827789 -0.10103882104
          -0.11505220085 -0.066291444004 -0.11149190366 -0.12895961106 -0.13593290746 -0.07270796597
          -0.066114187241 -0.049871083349 -0.0443626903 -0.069460064173 -0.083619870245 -0.049874708056
          -0.027228852734 -0.037869028747 -0.044506281614 -0.05527697131 -0.069319345057 -0.020495584235
          -0.065819270909 -0.0832586959 -0.090142950416 -0.026968121529 -0.018236517906 -0.0018443289446
          0.0036792699248 -0.021622279659 -0.035966079682 -0.0018851497443 0.021084928885 0.010281106457
          0.0035832645372 -0.0073385555297 -0.021549716592 0.027850637212 -0.018090043217 -0.035743426532
          -0.042614720762 0.021280631423 0.030396539718 0.047054931521 0.052658341825 0.026943093166
          0.012378910556 0.04699055478 0.070493794978 0.059431500733 0.052575808018 0.041458897293
          0.026958975941 0.077420927584 0.030420592055 0.012445593253 0.0055260611698 0.070604264736
          0.079810015857 0.09663374722 0.10231384635 0.076270580292 0.061569165438 0.096584357321
          0.12038174272 0.1091709286 0.1021944806 0.090979203582 0.076237425208 0.12733021379
          0.079717665911 0.061525449157 0.054587829858 0.12042143941 0.12976378202 0.1466319859
          0.15230153501 0.1262820214 0.11151129752 0.14661796391 0.17048488557 0.15918958187
          0.15222266316 0.14097172022 0.12620528042 0.17745366693 0.12969312072 0.1114500165
          0.10450461507 0.17046642303 0.17996576428 0.19679105282 0.20240311325 0.17647950351
          0.16179518402 0.19677248597 0.22059875727 0.20935744047 0.2024089396 0.19115367532
          0.1764665395 0.22751836479 0.17988696694 0.16172778606 0.15483087301 0.22058941424
          -0.18931221962 -0.17930851877 -0.16681869328 -0.2020407021 -0.21243537962 -0.19236625731
          -0.17020894587 -0.17340560257 -0.19336608052 -0.19145001471 -0.21015134454 -0.1552157104
          -0.21578711271 -0.2288671881 -0.22752848268 -0.15392193198 -0.17236581445 -0.15104013681
          -0.17502109706 -0.17050437629 -0.18957205117 -0.19707742333 -0.20910158753 -0.10316879302
          -0.099073000252 -0.10409285873 -0.11649239808 -0.11388031393 -0.11470426619 -0.12316688895
          -0.13141939044 -0.13250395656 -0.14329522848 -0.14243768156 -0.14765551686 -0.12967446446
          -0.074271731079 -0.071140304208 -0.074998468161 -0.084443308413 -0.08252197504 -0.08347415179
          -0.089667439461 -0.095873109996 -0.096807442605 -0.10485821962 -0.10442872345 -0.10808772594
          -0.095048122108 -0.045247867703 -0.043055679649 -0.046044938266 -0.053125075996 -0.051376182586
          -0.052082840353 -0.056581422687 -0.06133313477 -0.061746053398 -0.067621141672 -0.067259684205
          -0.069956406951 -0.060524210334 -0.020039584488 -0.018627282232 -0.020868031308 -0.025879789144
          -0.024266665801 -0.024801498279 -0.027764715254 -0.031264416873 -0.031151082367 -0.035037796944
          -0.034685082734 -0.036442544311 -0.030460296199 -0.0035303018522 -0.0029081057291 -0.0044150971808
          -0.0076210941188 -0.0058346143924 -0.0063991430216 -0.0076410928741 -0.010359583423 -0.0093174325302
          -0.011485402472 -0.010909514502 -0.011851705611 -0.0092636682093 -1.2711165454e-11 1.9237338111e-10
          6.077031673e-12 1.3194402168e-12 4.440134458e-12 -4.864297333e-12 -1.4807101942e-12 4.3318232573e-13
          -2.9889793711e-14 0 0 0 8.256162274e-15
        </DataArray>
        <DataArray type="Float32" Name="uy" format="ascii" RangeMin="-0.91604018211" RangeMax="0.28410536051">
          0.073041684926 0.074472054839 0.074225276709 0.043802354485 0.015983026475 0.022753313184
          0.020877415314 0.07344032824 0.075180239975 0.06365955621 0.044579178095 0.020028049126
          0.016620846465 0.028300769627 0.074233539402 0.062391653657 0.018314138055 0.026741076261
          0.074041366577 0.047540687025 0.026656454429 0.074114464223 0.026611993089 0.026579245925
          0.045991640538 0.07430125773 0.043789047748 -0.085223801434 -0.068536587059 -0.084379307926
          -0.083461798728 -0.066692329943 -0.082760259509 -0.062706552446 -0.06075681746 -0.073320016265
          -0.071364864707 -0.036335662007 -0.032939296216 -0.05240220204 -0.034008447081 -0.030546387658
          -0.050366215408 -0.020378943533 -0.01775242202 -0.052467633039 -0.05039280653 -0.04239122197
          -0.040129940957 -0.052385225892 -0.050311435014 -0.019782854244 -0.017194675282 -0.032057017088
          -0.029762173072 -0.052787218243 -0.050685308874 -0.071801632643 -0.070079267025 -0.088890179992
          -0.072568692267 -0.0880670771 -0.066923730075 -0.077188283205 -0.041141357273 -0.037803161889
          -0.056814137846 -0.02551445365 -0.056900370866 -0.047042775899 -0.056797180325 -0.024919109419
          -0.036952473223 -0.057156343013 -0.075736641884 -0.094064489007 -0.078086853027 -0.093348547816
          -0.072430238128 -0.08253185451 -0.047122724354 -0.043800067157 -0.062582224607 -0.031796667725
          -0.062626130879 -0.052905835211 -0.062530301511 -0.031187692657 -0.042985562235 -0.06279271096
          -0.081229098141 -0.1001668945 -0.084435194731 -0.099510006607 -0.078928247094 -0.088774561882
          -0.05408198759 -0.0507141985 -0.069181017578 -0.038971364498 -0.069305345416 -0.059749331325
          -0.069075547159 -0.038433261216 -0.049996126443 -0.069406531751 -0.087555423379 -0.10596039891
          -0.090254694223 -0.10538943857 -0.084668047726 -0.094436198473 -0.059756740928 -0.056301914155
          -0.074919179082 -0.044558256865 -0.074997611344 -0.065485037863 -0.074794992805 -0.044153083116
          -0.055728897452 -0.075122952461 -0.093391306698 -0.11022436619 -0.094465196133 -0.10977657884
          -0.088737279177 -0.098550051451 -0.063614800572 -0.060069710016 -0.078964032233 -0.048250053078
          -0.079053983092 -0.06947530061 -0.078912712634 -0.047992575914 -0.059733841568 -0.079148590565
          -0.097773455083 -0.113803491 -0.097880542278 -0.11353205144 -0.092032887042 -0.10196744651
          -0.066422924399 -0.062824457884 -0.082192637026 -0.050727095455 -0.082183457911 -0.072448939085
          -0.08214366436 -0.050577625632 -0.062634177506 -0.0823494941 -0.1014585048 -0.11888039857
          -0.10255660862 -0.11875192076 -0.096446350217 -0.10669725388 -0.070013783872 -0.066272132099
          -0.086301609874 -0.053682368249 -0.086311921477 -0.076275847852 -0.086383625865 -0.053582984954
          -0.066202282906 -0.086568504572 -0.10632693022 -0.12760086358 -0.11068255454 -0.12750598788
          -0.10438394547 -0.11500927061 -0.076836466789 -0.072978250682 -0.093840323389 -0.059800814837
          -0.093825735152 -0.083423018456 -0.094024598598 -0.059807233512 -0.073009029031 -0.09419310838
          -0.1147755608 -0.14162187278 -0.12447342277 -0.14164841175 -0.11795350909 -0.1287394464
          -0.089903749526 -0.086013831198 -0.10733437538 -0.072476930916 -0.10723978281 -0.09662424773
          -0.10761720687 -0.072546541691 -0.08610342443 -0.10764154047 -0.12873788178 -0.16316777468
          -0.14570480585 -0.16318722069 -0.13907535374 -0.15009623766 -0.11044473201 -0.10642386228
          -0.12820608914 -0.092571698129 -0.12814041972 -0.11731781811 -0.12846502662 -0.092644073069
          -0.10657153279 -0.12857295573 -0.15010358393 -0.19306339324 -0.17507663369 -0.19306924939
          -0.16820956767 -0.17955325544 -0.13872642815 -0.13460856676 -0.1570456624 -0.12042889744
          -0.15697555244 -0.14578358829 -0.15731331706 -0.12045877427 -0.13467799127 -0.15733669698
          -0.179574579 -0.23030230403 -0.21193988621 -0.23025451601 -0.2049292624 -0.21646763384
          -0.17497447133 -0.17080631852 -0.19360543787 -0.15638314188 -0.19346958399 -0.18206775188
          -0.19381017983 -0.15635199845 -0.17068973184 -0.19374082983 -0.2164618969 -0.27344256639
          -0.25490567088 -0.27341777086 -0.24786040187 -0.25941559672 -0.21773919463 -0.21350105107
          -0.23643235862 -0.19904729724 -0.23637163639 -0.22485558689 -0.23656471074 -0.19900283217
          -0.21337601542 -0.23649968207 -0.2593934536 -0.32068157196 -0.30187001824 -0.32065728307
          -0.29470559955 -0.30639016628 -0.26420870423 -0.25987261534 -0.28309312463 -0.24537825584
          -0.28303968906 -0.27138990164 -0.2831813395 -0.24532927573 -0.25975960493 -0.28314775229
          -0.30636459589 -0.36983457208 -0.35076129436 -0.36978006363 -0.34349957108 -0.35534080863
          -0.31269368529 -0.30826923251 -0.33172333241 -0.2936732471 -0.33169478178 -0.31994479895
          -0.33177420497 -0.29362902045 -0.30816110969 -0.33176040649 -0.35523456335 -0.41983571649
          -0.40043354034 -0.41975307465 -0.39308491349 -0.40507537127 -0.36176228523 -0.35723271966
          -0.3811147511 -0.34243518114 -0.3811173141 -0.36914482713 -0.38107764721 -0.34238743782
          -0.3571677804 -0.38112902641 -0.40495708585 -0.46965205669 -0.4500053823 -0.46962344646
          -0.44250983 -0.45463576913 -0.41076406837 -0.40612363815 -0.43038120866 -0.39114072919
          -0.43035835028 -0.41823282838 -0.43033203483 -0.39112767577 -0.40609937906 -0.43035373092
          -0.45462009311 -0.51890218258 -0.49918934703 -0.51887840033 -0.49167400599 -0.50386804342
          -0.45987582207 -0.45524451137 -0.47954899073 -0.44018438458 -0.47954252362 -0.46738749743
          -0.47956481576 -0.44018051028 -0.45522803068 -0.47952005267 -0.5038279295 -0.055609129369
          -0.041737321764 -0.054671376944 -0.037065602839 -0.045859634876 -0.015295789577 -0.012680748478
          -0.028572073206 -0.0021814731881 -0.028579585254 -0.020198497921 -0.028554946184 -0.0013777526328
          -0.011602931656 -0.028919108212 -0.044317774475 0.032431140542 0.033074073493 0.037874422967
          0.026639340445 0.030499141663 0.039045643061 0.034804966301 0.22257204354 0.2047893852
          0.22251461446 0.24118472636 0.22310836613 0.24089549482 0.19792847335 0.21623210609
          0.20890794694 0.22741872072 0.1694163233 0.1655895412 0.18722358346 0.18735608459
          0.18355998397 0.20530921221 0.15189188719 0.16968713701 0.18705803156 0.20517547429
          0.17588675022 0.19383572042 0.1873421669 0.20538777113 0.15144708753 0.1690672785
          0.16469310224 0.1823322922 0.18669179082 0.2047534585 0.20901367068 0.22718282044
          0.2574968338 0.23925796151 0.2571721375 0.23241429031 0.24366217852 0.20341214538
          0.19957710803 0.22140832245 0.18571054935 0.22130134702 0.20997515321 0.2214320749
          0.18510907888 0.19843322039 0.22093108296 0.24330355227 0.27114823461 0.25288692117
          0.27082642913 0.24598357081 0.25725519657 0.21702520549 0.21309128404 0.23493686318
          0.19927173853 0.23486565053 0.22356295586 0.23489233851 0.19869090617 0.21198552847
          0.23447419703 0.25688350201 0.28124445677 0.26304113865 0.28098163009 0.25608599186
          0.26726979017 0.22716264427 0.22314691544 0.24501515925 0.20955868065 0.24500995874
          0.23368920386 0.24489507079 0.20902650058 0.22217957675 0.24445179105 0.26693603396
          0.28410536051 0.26590898633 0.28386726975 0.25898250937 0.26999717951 0.23033194244
          0.22618593276 0.24791173637 0.21290285885 0.24799437821 0.23675951362 0.24762184918
          0.21240705252 0.22524294257 0.24724580348 0.26968511939 0.27527177334 0.25722792745
          0.27511391044 0.25028765202 0.261095047 0.221973598 0.21770276129 0.23936988413
          0.20477837324 0.23942428827 0.22831971943 0.23894974589 0.20432697237 0.21691291034
          0.23853351176 0.26089411974 0.25082063675 0.23302645981 0.2506390512 0.22621592879
          0.23678794503 0.19843518734 0.19420206547 0.21550217271 0.18152675033 0.21556968987
          0.20463298261 0.21496140957 0.18111485243 0.19343714416 0.21460659802 0.23662127554
          0.2098955214 0.19227086008 0.20969751477 0.18552991748 0.19604311883 0.15792542696
          0.15373048186 0.17480035126 0.14116932452 0.17495761812 0.16415196657 0.17433090508
          0.14076586068 0.15305626392 0.17409421504 0.1958450526 0.1533241272 0.13583277166
          0.15317942202 0.12915320694 0.13961750269 0.10163117945 0.097456857562 0.11851218343
          0.084891416132 0.11860378832 0.10788723826 0.11802858859 0.084558978677 0.096865467727
          0.11781953275 0.13941143453 0.082438468933 0.065166443586 0.082289323211 0.058586135507
          0.068959891796 0.031367409974 0.027251318097 0.04806240648 0.014798995107 0.048188377172
          0.037566706538 0.047691177577 0.014483621344 0.02673166059 0.04747499153 0.068752020597
          -0.00083728443133 -0.017787100747 -0.00095376791432 -0.024228068069 -0.014011626132 -0.05101742968
          -0.055042564869 -0.034558273852 -0.067352361977 -0.034488547593 -0.044869590551 -0.034880958498
          -0.067598424852 -0.055402092636 -0.034969273955 -0.01416893024 -0.093335866928 -0.11009448022
          -0.093453250825 -0.11647228897 -0.10630320013 -0.1431183219 -0.14707405865 -0.12675443292
          -0.15943898261 -0.12666967511 -0.13697116077 -0.12695626915 -0.15963223577 -0.14737857878
          -0.12703074515 -0.10645666718 -0.19268462062 -0.20941959321 -0.19278796017 -0.21581228077
          -0.20558325946 -0.24251560867 -0.24643431604 -0.22607399523 -0.25885212421 -0.22603842616
          -0.23632159829 -0.22624218464 -0.25903120637 -0.2466879487 -0.22629871964 -0.20572441816
          -0.29691019654 -0.31359183788 -0.29698133469 -0.31992575526 -0.30965858698 -0.34661892056
          -0.35052794218 -0.33018016815 -0.36300644279 -0.33014643192 -0.34038901329 -0.33032485843
          -0.36314037442 -0.35073420405 -0.33030614257 -0.30983555317 -0.4039567709 -0.42080381513
          -0.40400421619 -0.42720106244 -0.41684255004 -0.45427533984 -0.45821851492 -0.43759560585
          -0.4709020257 -0.43753942847 -0.4479059577 -0.43768623471 -0.4709585011 -0.45831385255
          -0.43768021464 -0.41695585847 -0.51366633177 -0.53080689907 -0.51371258497 -0.53732818365
          -0.5267585516 -0.56504648924 -0.56913125515 -0.54794985056 -0.58214348555 -0.54791653156
          -0.55850148201 -0.54800403118 -0.5821595192 -0.5691126585 -0.54795867205 -0.52681690454
          -0.62478929758 -0.64213067293 -0.62481570244 -0.64873123169 -0.63801050186 -0.6767578721
          -0.68082785606 -0.6594402194 -0.6940921545 -0.6594466567 -0.67015022039 -0.65940839052
          -0.69408136606 -0.68083834648 -0.65944755077 -0.6380469799 -0.73577111959 -0.75308412313
          -0.7357943058 -0.75971275568 -0.74902200699 -0.78776818514 -0.79186940193 -0.77041083574
          -0.80512470007 -0.77040332556 -0.78113281727 -0.7703846097 -0.80515033007 -0.79185539484
          -0.77043324709 -0.74899607897 -0.84700351954 -0.86423045397 -0.84700572491 -0.87080049515
          -0.86016911268 -0.89872694016 -0.90281176567 -0.88148850203 -0.91602939367 -0.88150000572
          -0.89214473963 -0.88147717714 -0.91604018211 -0.90283477306 -0.88149350882 -0.86019676924
          0.16398949921 0.15392291546 0.16433772445 0.1498067677 0.15601702034 0.13293598592
          0.13062398136 0.14361867309 0.12234228104 0.14344909787 0.13694864511 0.14381852746
          0.12237101048 0.13053014874 0.1434032917 0.15665727854 0.073545522988 0.072989836335
          0.072853855789 0.074076481164 0.074064023793 0.073653049767 0.07435965538 0.017729908228
          0.032092433423 0.046183586121 0.054777298123 0.031745593995 0.0086319325492 0.03159044683
          0.054572019726 0.03138531372 0.045573815703 0.016824377701 0.031103570014 0.0082662608474
          0.0086228717119 0.019629858434 0.03040099889 0.036781668663 0.019258696586 0.0015775362263
          0.019081939012 0.036449689418 0.018884640187 0.029565129429 0.0079081784934 0.018663851544
          0.0013244795846 0.0015226748073 0.0097062820569 0.017624834552 0.022084904835 0.0093089463189
          -0.0036771113519 0.0091134151444 0.021600527689 0.0089556472376 0.016549902037 0.0010689446935
          0.0088136522099 -0.0037443211768 -0.0023155536037 0.0033245736267 0.0086872894317 0.011410950683
          0.0029288064688 -0.0057998932898 0.0027192337438 0.010758711956 0.002549469471 0.0073218089528
          -0.0024556526914 0.0024027589243 -0.0057034725323 -0.0024983687326 0.0008784152451 0.003910979256
          0.004861831665 0.0003880749864 -0.0042858128436 0.00010244295845 0.0036910716444 -0.00012048606004
          0.0016250559129 -0.0022857056465 -0.00038713478716 -0.0039497185498 4.6158571756e-12 9.1306328817e-12
          -8.3733211337e-12 1.9090408507e-12 -1.6153109666e-12 4.8169842139e-14 1.8628486611e-13 1.2458152457e-13
          -2.2344112932e-15 0 0 0 4.4207869245e-14
        </DataArray>
        <DataArray type="Float32" Name="uz" format="ascii" RangeMin="-0.16116037965" RangeMax="0.047489009798">
          -0.029107578099 -0.031182818115 -0.026575736701 -0.015776535496 -0.0041691213846 -0.0057706632651
          -0.0079972725362 -0.032692033798 -0.036688573658 -0.030474986881 -0.020015215501 -0.011510005221
          -0.0071838125587 -0.014459149912 -0.024078888819 -0.021277768537 -0.0023482267279 -0.0060349917039
          -0.031942419708 -0.023520657793 -0.011335104704 -0.035084784031 -0.013329232112 -0.0034612086602
          -0.012706075795 -0.020952574909 -0.017837503925 -0.032101094723 -0.022279985249 -0.030942510813
          -0.023299766704 -0.017713317648 -0.023002529517 -0.019895613194 -0.015876632184 -0.026151126251
          -0.019321693107 -0.0044121830724 -0.0010914410232 -0.012691113167 -0.0072382739745 -0.0057519725524
          -0.012139840052 0.0048408135772 -0.0023224141914 -0.013646648265 -0.012454356998 -0.0088339960203
          -0.0093828802928 -0.011782767251 -0.011866959743 0.0036882061977 -0.0025233642664 -0.004059611354
          -0.0063933818601 -0.015442058444 -0.012775740586 -0.023215927184 -0.018583487719 -0.041213653982
          -0.027094224468 -0.039443392307 -0.023779889569 -0.032807353884 -0.0014578037662 0.0034473345149
          -0.013289066963 0.011784861796 -0.014710330404 -0.0079201478511 -0.011792388745 0.010045494884
          -0.0011389197316 -0.017508056015 -0.028228444979 -0.04989803955 -0.031703669578 -0.047752298415
          -0.027299745008 -0.038983378559 0.0014683154877 0.0076834103093 -0.013917090371 0.018651558086
          -0.015666566789 -0.0067604356445 -0.012156368233 0.016513813287 0.0020736374427 -0.019095890224
          -0.033323500305 -0.057726092637 -0.03600332886 -0.055569708347 -0.030243644491 -0.044141970575
          0.0041570495814 0.011214154772 -0.014754716307 0.024871747941 -0.016457816586 -0.0054098688997
          -0.013017300516 0.02270991914 0.005616851151 -0.019921071827 -0.038492802531 -0.064276456833
          -0.039850600064 -0.062590397894 -0.032619290054 -0.048009939492 0.006213337183 0.013493835926
          -0.015893131495 0.029754795134 -0.017260020599 -0.0041021718644 -0.014520922676 0.028094517067
          0.0090665193275 -0.020011179149 -0.043550238013 -0.069365695119 -0.04298549518 -0.06816598773
          -0.034513100982 -0.05105663836 0.0076663699001 0.014991809614 -0.016954574734 0.033387091011
          -0.018019532785 -0.0032024919055 -0.015940047801 0.032134037465 0.011742631905 -0.020073696971
          -0.047702655196 -0.073164410889 -0.045213423669 -0.071881040931 -0.03618131578 -0.053672757
          0.0085491221398 0.016311397776 -0.017569221556 0.035849343985 -0.018656143919 -0.0029038668144
          -0.016567105427 0.034567985684 0.012952170335 -0.020764570683 -0.050251789391 -0.075751416385
          -0.046445641667 -0.073754914105 -0.037718806416 -0.056212555617 0.0090553630143 0.017766285688
          -0.017535768449 0.037351563573 -0.019209450111 -0.0033922945149 -0.015947703272 0.035359133035
          0.012518782169 -0.022507309914 -0.050886761397 -0.077659025788 -0.04678876698 -0.074035689235
          -0.039353948087 -0.059079304338 0.0094196675345 0.019903542474 -0.016655595973 0.038462232798
          -0.019603621215 -0.004594694823 -0.013726935722 0.034822694957 0.010443801992 -0.025449289009
          -0.049595531076 -0.079191170633 -0.046542193741 -0.073233447969 -0.041200973094 -0.062489807606