<VTKFile type="UnstructuredGrid" version="1.0" byte_order="LittleEndian" header_type="UInt64">
  <UnstructuredGrid>
    <Piece NumberOfPoints="791" NumberOfCells="973">
      <PointData>
        <DataArray type="Float32" Name="ux" format="ascii" RangeMin="-0.26874092221" RangeMax="0.75381684303">
          -0.10352347046 -0.11741954088 -0.10993306339 -0.10130479187 -0.10384941846 -0.11043993384
          -0.117397964 -0.11288247257 -0.12884648144 -0.12160350382 -0.1126954779 -0.12833932042
          -0.11300906539 -0.12150545418 -0.097382366657 -0.097174055874 -0.098450765014 -0.09749481082
          -0.13006719947 -0.12813231349 -0.12952648103 -0.13902907073 -0.13794159889 -0.10429760814
          -0.097662948072 -0.10316629708 -0.10615506023 -0.16575622559 -0.17125630379 -0.17289084196
          -0.15093059838 -0.15633760393 -0.158072263 -0.16456401348 -0.14963212609 -0.15989172459
          -0.14499410987 -0.17134563625 -0.17980070412 -0.1756311357 -0.15634924173 -0.16480429471
          -0.16067573428 -0.17331343889 -0.15826679766 -0.16943605244 -0.15445838869 -0.16433358192
          -0.14934143424 -0.18187944591 -0.16696387529 -0.16520155966 -0.15013210475 -0.15904417634
          -0.14401172101 -0.1572047174 -0.14225561917 -0.17903973162 -0.16422471404 -0.17743831873
          -0.18283395469 -0.18443273008 -0.17623358965 -0.17166030407 -0.18295757473 -0.19138455391
          -0.18719390035 -0.18493871391 -0.18103645742 -0.17596384883 -0.19339813292 -0.17681001127
          -0.17068557441 -0.16893081367 -0.19053263962 -0.18589583039 -0.19124275446 -0.19280478358
          -0.1847140938 -0.18022440374 -0.19133017957 -0.19975857437 -0.19557741284 -0.1932708025
          -0.18945345283 -0.18442288041 -0.20176759362 -0.18520157039 -0.17919549346 -0.17753258348
          -0.19887728989 -0.19002351165 -0.19524887204 -0.19669272006 -0.18896974623 -0.18462204933
          -0.19537910819 -0.20355242491 -0.19949689507 -0.19721201062 -0.19356521964 -0.18868972361
          -0.20553337038 -0.18938393891 -0.18361975253 -0.1820512116 -0.20265582204 -0.18797454238
          -0.19315393269 -0.19450753927 -0.18701477349 -0.1827558428 -0.19327361882 -0.20131960511
          -0.19735734165 -0.19499862194 -0.1915140599 -0.18673072755 -0.20332589746 -0.1873024404
          -0.18174819648 -0.18027733266 -0.20046143234 -0.17803384364 -0.18338252604 -0.18471840024
          -0.17713023722 -0.17278136313 -0.18348363042 -0.19170674682 -0.18768854439 -0.18519569933
          -0.18172670901 -0.1768617779 -0.19382596016 -0.17739672959 -0.17182245851 -0.17034101486
          -0.19086782634 -0.15808288753 -0.16376629472 -0.16517464817 -0.15720357001 -0.15259857476
          -0.16388557851 -0.17251299322 -0.16832734644 -0.16565534472 -0.16204717755 -0.15694753826
          -0.17480026186 -0.15749251842 -0.15167364478 -0.15008640289 -0.1716915518 -0.12692718208
          -0.1329921335 -0.13452602923 -0.12600059807 -0.12106607109 -0.13309045136 -0.14216671884
          -0.13779969513 -0.13492786884 -0.13115172088 -0.12576572597 -0.14464746416 -0.12637132406
          -0.12022052705 -0.11846717447 -0.14143198729 -0.084050096571 -0.090510904789 -0.092172876
          -0.083069272339 -0.077793173492 -0.090602874756 -0.10014495999 -0.095586314797 -0.092531770468
          -0.088546916842 -0.082863867283 -0.10283329338 -0.083575733006 -0.07706553489 -0.075101315975
          -0.099525637925 -0.029823327437 -0.036586526781 -0.038377124816 -0.02879072912 -0.023241385818
          -0.036642033607 -0.04647487402 -0.041819706559 -0.038659483194 -0.034500967711 -0.028622038662
          -0.049309745431 -0.029425835237 -0.022655203938 -0.020512778312 -0.045978523791 0.035465277731
          0.028431974351 0.026509961113 0.036562047899 0.042383357882 0.028336150572 0.01822688058
          0.023021845147 0.026218030602 0.030600400642 0.0366679281 0.01529545337 0.035714454949
          0.04283509776 0.045199748129 0.01865673624 0.11054703593 0.10321369767 0.10109525919
          0.11177122593 0.11793628335 0.10315313935 0.092680551112 0.097633734345 0.1008785367
          0.10550975055 0.11184041202 0.089613683522 0.11069984734 0.11821246892 0.1208473742
          0.092976860702 0.19283664227 0.18542473018 0.18315069377 0.19418771565 0.2005071491
          0.18543963134 0.17491707206 0.17985215783 0.1831266731 0.18782620132 0.19425362349
          0.17179404199 0.19300737977 0.20068950951 0.20347760618 0.17503507435 0.28012731671
          0.27283635736 0.27051886916 0.2814950943 0.28775829077 0.27283626795 0.26255136728
          0.26737132668 0.2704975903 0.27520677447 0.28151494265 0.25948548317 0.28016540408
          0.28781780601 0.29067638516 0.26258245111 0.37054681778 0.36330741644 0.36096459627
          0.37196579576 0.37825110555 0.36331307888 0.35313460231 0.35791537166 0.3609751761
          0.36570441723 0.37196615338 0.35010167956 0.37055903673 0.37824529409 0.38116326928
          0.35312265158 0.46277448535 0.45542624593 0.45300745964 0.46425169706 0.47063592076
          0.45542189479 0.44503811002 0.44993340969 0.45299527049 0.45785614848 0.46425962448
          0.44200819731 0.4627892971 0.47067168355 0.47364169359 0.4450661242 0.555762887
          0.54827260971 0.54578781128 0.55730199814 0.56381434202 0.54826176167 0.53764694929
          0.54265844822 0.54576265812 0.55076414347 0.55730813742 0.53454422951 0.55579739809
          0.56387078762 0.56690478325 0.53767442703 0.64903914928 0.64144861698 0.63892674446
          0.65059059858 0.65720790625 0.6414270401 0.63066607714 0.63575965166 0.63887304068
          0.64397406578 0.65060830116 0.62754327059 0.64904814959 0.65725082159 0.66036617756
          0.63071680069 0.74248409271 0.73488742113 0.73236334324 0.74405109882 0.75067460537
          0.73486953974 0.72411704063 0.72920465469 0.73233109713 0.73740810156 0.74404960871
          0.72099786997 0.74248939753 0.7506890893 0.75381684303 0.72414565086 -0.1236403361
          -0.13338127732 -0.13214290142 -0.12698714435 -0.11945713311 -0.14017939568 -0.15024796128
          -0.14161001146 -0.14570225775 -0.13464355469 -0.13107201457 -0.1485979557 -0.13685199618
          -0.12739397585 -0.12086669356 -0.14160557091 -0.12986342609 -0.14236484468 -0.13857673109
          -0.12108468264 -0.11806859821 -0.128206864 -0.11514136195 -0.15402889252 -0.16334031522
          -0.16645812988 -0.17481194437 -0.1847319752 -0.18796992302 -0.15209078789 -0.17283426225
          -0.14399155974 -0.16421572864 -0.16327130795 -0.17651775479 -0.17030841112 -0.18466922641
          -0.19870901108 -0.19212903082 -0.16629287601 -0.18788453937 -0.16020415723 -0.18142691255
          -0.15202623606 -0.17276985943 -0.18046848476 -0.2028618902 -0.15380203724 -0.17466524243
          -0.1438331306 -0.16412818432 -0.14010880888 -0.16015736759 -0.17659030855 -0.19872260094
          -0.19352799654 -0.2037910372 -0.20717121661 -0.19149214029 -0.1825902313 -0.20371828973
          -0.21815629303 -0.21141950786 -0.20701371133 -0.20038282871 -0.19146761298 -0.2225138545
          -0.19344121218 -0.18259215355 -0.17845541239 -0.21830157936 -0.20998650789 -0.22043098509
          -0.22387424111 -0.20795875788 -0.19891789556 -0.22034952044 -0.23496684432 -0.22817867994
          -0.22365833819 -0.21696989238 -0.20795974135 -0.23943966627 -0.20996040106 -0.19901007414
          -0.19479605556 -0.23519454896 -0.22356012464 -0.23424443603 -0.23770952225 -0.22157415748
          -0.21234832704 -0.23412378132 -0.24890002608 -0.24208493531 -0.23741038144 -0.23072889447
          -0.2215975076 -0.25350943208 -0.2235993892 -0.21256496012 -0.20823717117 -0.24923437834
          -0.23323385417 -0.24411039054 -0.24760358036 -0.23130902648 -0.22194504738 -0.243977651
          -0.2588018775 -0.25202059746 -0.247247383 -0.24056258798 -0.23139920831 -0.26354828477
          -0.23342257738 -0.22235885262 -0.21791042387 -0.25929221511 -0.23818683624 -0.24915613234
          -0.25269982219 -0.23626615107 -0.22681330144 -0.24900540709 -0.26387298107 -0.25710472465
          -0.25226002932 -0.24559089541 -0.23638136685 -0.26868638396 -0.23844383657 -0.22735357285
          -0.22284583747 -0.26446548104 -0.23819446564 -0.24920968711 -0.25277519226 -0.23627783358
          -0.22677588463 -0.2490618825 -0.26391941309 -0.25716149807 -0.25232836604 -0.24563780427
          -0.23642058671 -0.26874092221 -0.2385007441 -0.22737129033 -0.22281521559 -0.26454895735
          -0.23363004625 -0.24475899339 -0.24836237729 -0.23166494071 -0.22206073999 -0.24462200701
          -0.25966089964 -0.25280994177 -0.24794177711 -0.24114002287 -0.23181758821 -0.26455312967
          -0.23393678665 -0.22263588011 -0.2180288285 -0.26028800011 -0.22477437556 -0.23605695367
          -0.23971790075 -0.22276303172 -0.21302898228 -0.2359496057 -0.25132009387 -0.24428088963
          -0.23934325576 -0.23238962889 -0.22288264334 -0.25625815988 -0.22502538562 -0.21351778507
          -0.20889247954 -0.25186705589 -0.21151228249 -0.22286216915 -0.22653226554 -0.20944590867
          -0.19965916872 -0.22272479534 -0.23832690716 -0.23116886616 -0.22616054118 -0.21915242076
          -0.2095079422 -0.24326565862 -0.21158845723 -0.19995193183 -0.19537676871 -0.23876194656
          -0.19305835664 -0.2045366466 -0.20822435617 -0.19091701508 -0.18104831874 -0.20443493128
          -0.22042234242 -0.21302449703 -0.20798948407 -0.20077306032 -0.19092285633 -0.22536024451
          -0.19301895797 -0.18114386499 -0.17658933997 -0.22066146135 -0.16896508634 -0.18079861999
          -0.18459641933 -0.16672362387 -0.15654626489 -0.18077152967 -0.19744352996 -0.18964655697
          -0.18453928828 -0.17692148685 -0.16669327021 -0.20243778825 -0.16888776422 -0.15648937225
          -0.15184563398 -0.19746151567 -0.14001815021 -0.15234036744 -0.15628965199 -0.13761438429
          -0.12699480355 -0.15234227479 -0.16985154152 -0.16160565615 -0.15635164082 -0.14828675985
          -0.13755132258 -0.17498856783 -0.13984119892 -0.12676854432 -0.12194534391 -0.16972012818
          -0.10692549497 -0.11965654045 -0.12374634296 -0.10439134389 -0.09340596199 -0.11966595054
          -0.1378261894 -0.12923336029 -0.12383386493 -0.11545336246 -0.10430724174 -0.14308032393
          -0.10669998825 -0.093111760914 -0.088122941554 -0.13762101531 -0.070097126067 -0.083226650953
          -0.087497539818 -0.067424215376 -0.056046750396 -0.083236567676 -0.10197457671 -0.093104869127
          -0.087579913437 -0.078878678381 -0.067337185144 -0.1074032262 -0.069878615439 -0.055763427168
          -0.050558194518 -0.10178039968 -0.03023227863 -0.043726909906 -0.048162735999 -0.027459550649
          -0.015746261925 -0.043735794723 -0.062968701124 -0.053868789226 -0.048228181899 -0.039236549288
          -0.027376906946 -0.06852439791 -0.03003667295 -0.01548626367 -0.010072055273 -0.062807433307
          0.011193116195 -0.0024256708566 -0.0069530499168 0.014034929685 0.025894038379 -0.0024259651545
          -0.021796869114 -0.012633921579 -0.0069768773392 0.002137490781 0.014096201397 -0.027402635664
          0.011359715834 0.026105212048 0.031612511724 -0.02168847248 0.053112756461 0.039442770183
          0.034868773073 0.055950928479 0.067877694964 0.039460062981 0.020077001303 0.029237806797
          0.034890554845 0.044015418738 0.05599655956 0.014452359639 0.053201958537 0.067966431379
          0.073571659625 0.020112682134 0.094883166254 0.081177018583 0.076611064374 0.097711227834
          0.10966438055 0.081176370382 0.06181903556 0.070965833962 0.07660292089 0.085755638778
          0.097720324993 0.056196346879 0.094911850989 0.10970486701 0.11534008384 0.061845909804
          -0.12203665823 -0.13468340039 -0.13357764482 -0.12577009201 -0.11579094082 -0.14265176654
          -0.15595327318 -0.14514394104 -0.14953827858 -0.13578352332 -0.13063406944 -0.15453115106
          -0.13781563938 -0.12541398406 -0.1170758754 -0.14595235884 -0.13025340438 -0.14361040294
          -0.13951188326 -0.1210962534 -0.11778710783 -0.1283596307 -0.11447907239 -0.088080212474
          -0.090464048088 -0.088187873363 -0.082133702934 -0.082992777228 -0.082015201449 -0.078326359391
          -0.074641235173 -0.073672778904 -0.068534754217 -0.068562760949 -0.066247135401 -0.074602074921
          -0.058967035264 -0.060659822077 -0.058815363795 -0.054189257324 -0.054809674621 -0.054302606732
          -0.05111932382 -0.048285637051 -0.04739382118 -0.043370272964 -0.043236114085 -0.041447784752
          -0.048249591142 -0.033842772245 -0.03494028002 -0.033463530242 -0.030219716951 -0.030610958114
          -0.030472954735 -0.027859618887 -0.025964973494 -0.025076474994 -0.022190906107 -0.021872434765
          -0.020610466599 -0.025836801156 -0.015311890282 -0.015875836834 -0.014777378179 -0.012800187804
          -0.012998944148 -0.013134691864 -0.011147921905 -0.010081625544 -0.0092803686857 -0.0075050378218
          -0.0070475968532 -0.0062970519066 -0.0098789725453 -0.004495353438 -0.0043975515291 -0.0035715862177
          -0.0029688810464 -0.0029972689226 -0.0034832409583 -0.0020899637602 -0.0019713318907 -0.0011533513898
          -0.00060783594381 0.00024154597486 0.00036598919542 -0.0015385840088 1.6201057856e-11 -2.0404597456e-10
          4.4881622724e-11 -1.461062933e-12 -4.1066642274e-12 -4.0459198491e-12 2.2203851171e-12 -1.4850784719e-14
          6.3536161602e-15 0 0 0 -1.2124580379e-14
        </DataArray>
        <DataArray type="Float32" Name="uy" format="ascii" RangeMin="-0.43403026462" RangeMax="1.6607718468">
          -0.13572826982 -0.14071919024 -0.14236563444 -0.12099388242 -0.10891342163 -0.11796379834
          -0.11536681652 -0.13571114838 -0.13989369571 -0.13156306744 -0.12093167007 -0.11353215575
          -0.10882922262 -0.11479067802 -0.1398961246 -0.13165099919 -0.11364783347 -0.11485676467
          -0.14497955143 -0.12635040283 -0.12195136398 -0.14508841932 -0.12185692787 -0.12187951058
          -0.1264424473 -0.14503476024 -0.12016632408 -0.071052186191 -0.076693058014 -0.0709368065
          -0.082508847117 -0.087957814336 -0.082382373512 -0.078845277429 -0.090087607503 -0.075099490583
          -0.086541302502 -0.088525369763 -0.089783519506 -0.082415193319 -0.099693730474 -0.1009291932
          -0.093633562326 -0.094708353281 -0.10578897595 -0.082517646253 -0.093716055155 -0.086058869958
          -0.097223386168 -0.082062289119 -0.093343496323 -0.094483830035 -0.10554429889 -0.089445158839
          -0.10051617026 -0.081979095936 -0.093245252967 -0.074935980141 -0.086327396333 -0.049779962748
          -0.055259231478 -0.04964665696 -0.057364553213 -0.05372023955 -0.066901013255 -0.068095676601
          -0.060851253569 -0.073011726141 -0.060978755355 -0.064453631639 -0.060467746109 -0.072812467813
          -0.067765444517 -0.06040469557 -0.053492695093 -0.017158938572 -0.022527817637 -0.016945548356
          -0.024670671672 -0.021071705967 -0.034096948802 -0.035314008594 -0.028059583157 -0.040215142071
          -0.028219170868 -0.031665910035 -0.027637058869 -0.039946369827 -0.034903205931 -0.02765385434
          -0.020707799122 0.027297934517 0.022144258022 0.027572575957 0.020066207275 0.023511020467
          0.010899352841 0.0096609024331 0.016760604456 0.0049317670055 0.016622278839 0.013306505978
          0.017169555649 0.0052764392458 0.010218508542 0.01721178554 0.023953998461 0.083730168641
          0.078719906509 0.084084793925 0.076663814485 0.079984687269 0.067665211856 0.066385157406
          0.073416821659 0.061782546341 0.073301203549 0.070072412491 0.073793910444 0.062223952264
          0.067092821002 0.073875851929 0.080540739 0.15175439417 0.14669297636 0.15221586823
          0.14454226196 0.14787116647 0.13538633287 0.13401705027 0.14126652479 0.12937518954
          0.14113602042 0.1378570348 0.14164443314 0.12989760935 0.1348605305 0.1416837424
          0.14860443771 0.23131147027 0.22598557174 0.23181842268 0.22370705009 0.22717529535
          0.21407987177 0.21259814501 0.22025436163 0.2077716738 0.2201333344 0.21668343246
          0.22061142325 0.20834840834 0.2135515213 0.22068576515 0.22799932957 0.3217933476
          0.31609913707 0.32232579589 0.31366893649 0.3173276186 0.30348324776 0.30188041925
          0.30998021364 0.29683846235 0.30988395214 0.30621150136 0.31031858921 0.29744821787
          0.3028652072 0.31039252877 0.31818526983 0.42238330841 0.41628909111 0.42292267084
          0.41371154785 0.41758683324 0.4029327333 0.40119668841 0.40977150202 0.39595076442
          0.40968996286 0.40580269694 0.41004750133 0.39656183124 0.40219554305 0.41015538573
          0.41843107343 0.53129547834 0.52491027117 0.5318146348 0.5222119689 0.52622526884
          0.51111316681 0.50932252407 0.51814311743 0.50394326448 0.51806408167 0.51401340961
          0.51839202642 0.50451779366 0.51023763418 0.51844167709 0.5270653367 0.6472864151
          0.64058077335 0.64775073528 0.63777977228 0.64198201895 0.62624084949 0.62437790632
          0.6335093379 0.61885023117 0.63345581293 0.62921220064 0.63369619846 0.6193407774
          0.62519931793 0.63375973701 0.64272415638 0.76916217804 0.76204258204 0.76953405142
          0.75910699368 0.76353996992 0.74705994129 0.74515765905 0.7546094656 0.73942446709
          0.75457698107 0.75009101629 0.75476205349 0.73980754614 0.74576711655 0.75475794077
          0.76414161921 0.89431107044 0.88696795702 0.89456528425 0.88401448727 0.8885357976
          0.87183123827 0.86993771791 0.8794491291 0.86415600777 0.87941175699 0.87481075525
          0.8795067668 0.86442422867 0.8703302145 0.87947535515 0.88896930218 1.0207704306
          1.013476491 1.020927906 1.0106016397 1.0150980949 0.99860674143 0.99675399065
          1.0060503483 0.99111419916 1.0060542822 1.0015155077 1.0060646534 0.9912828207
          0.9970395565 1.0060973167 1.0153394938 1.147657156 1.1403059959 1.1477445364
          1.1374721527 1.1419950724 1.1254938841 1.1237038374 1.1329077482 1.1180779934
          1.1329032183 1.128354907 1.1329138279 1.1181778908 1.1238480806 1.1329367161
          1.1421302557 1.2749962807 1.2674944401 1.2750247717 1.264621973 1.2692568302
          1.2524551153 1.2506612539 1.2599776983 1.2449144125 1.2599664927 1.2553459406
          1.25999856 1.2449605465 1.2507431507 1.2600228786 1.2693024874 1.4031585455
          1.3954875469 1.403177619 1.3925625086 1.3973072767 1.3801202774 1.3782889843
          1.3878039122 1.3724172115 1.3878065348 1.3830806017 1.3878178596 1.372449398
          1.3783794641 1.3878639936 1.3973243237 1.5318692923 1.5240831375 1.5318791866
          1.5211031437 1.5259263515 1.5084531307 1.5065945387 1.5162665844 1.5006313324
          1.5162619352 1.511453867 1.5162707567 1.500639677 1.5066303015 1.5162922144
          1.5259290934 1.6607679129 1.6529749632 1.6607718468 1.6500005722 1.6548261642
          1.6373647451 1.6355173588 1.6451692581 1.629545927 1.6451694965 1.6403605938
          1.6451743841 1.629557848 1.635538578 1.6451830864 1.6548223495 -0.093028023839
          -0.098067767918 -0.092897005379 -0.10010550916 -0.096854828298 -0.10930277407 -0.11052598059
          -0.10348790884 -0.11517351121 -0.10354792327 -0.10693439096 -0.10328160226 -0.114968732
          -0.11015989631 -0.10321111232 -0.096608199179 -0.12820702791 -0.12977682054 -0.13435733318
          -0.12194953114 -0.12579365075 -0.13423934579 -0.12955196202 -0.25390014052 -0.24434897304
          -0.25398108363 -0.2859749496 -0.27587151527 -0.28603962064 -0.24067237973 -0.2719746232
          -0.24658431113 -0.27820721269 -0.22513651848 -0.222834602 -0.23473550379 -0.25549027324
          -0.25297039747 -0.26567235589 -0.21553397179 -0.24523614347 -0.23473952711 -0.26568841934
          -0.22887133062 -0.259437114 -0.23477767408 -0.26565602422 -0.21567745507 -0.24538625777
          -0.22307513654 -0.25322028995 -0.2348510772 -0.2657173872 -0.24669279158 -0.27830868959
          -0.31753093004 -0.30709725618 -0.31761330366 -0.30307620764 -0.30946266651 -0.28610366583
          -0.28348299861 -0.29657062888 -0.2755946517 -0.29660913348 -0.29019150138 -0.29649567604
          -0.27575707436 -0.28377744555 -0.29661354423 -0.30958744884 -0.34763172269 -0.33706313372
          -0.34776356816 -0.33294314146 -0.33938741684 -0.31578335166 -0.31306621432 -0.32636630535
          -0.30514124036 -0.32640737295 -0.31991019845 -0.32624858618 -0.30534008145 -0.31343460083
          -0.32635644078 -0.33958736062 -0.37589463592 -0.36517715454 -0.37607067823 -0.3609508872
          -0.36745423079 -0.34357848763 -0.34078678489 -0.35430341959 -0.33279600739 -0.35434895754
          -0.34772446752 -0.35417091846 -0.3329963088 -0.3411359489 -0.35418623686 -0.36772975326
          -0.40034940839 -0.38952484727 -0.40056675673 -0.38523948193 -0.39174553752 -0.36776208878
          -0.36487913132 -0.37851572037 -0.3569432497 -0.3786072135 -0.37192648649 -0.37830722332
          -0.3571767509 -0.36528530717 -0.37835261226 -0.3920635879 -0.41883561015 -0.40795198083
          -0.41906985641 -0.40361335874 -0.41010543704 -0.38612273335 -0.38318890333 -0.39689540863
          -0.37527728081 -0.39697417617 -0.39027139544 -0.39664152265 -0.3755222857 -0.38358795643
          -0.39663669467 -0.41048496962 -0.43015420437 -0.41922602057 -0.43037876487 -0.41487261653
          -0.42138004303 -0.39734190702 -0.39440971613 -0.40814265609 -0.38650527596 -0.40821996331
          -0.4014903307 -0.40784335136 -0.38671311736 -0.39476311207 -0.40783965588 -0.42172887921
          -0.43381485343 -0.4227386415 -0.43403026462 -0.41834652424 -0.42495653033 -0.4005408287
          -0.39756393433 -0.41148021817 -0.38953703642 -0.4115884006 -0.40475854278 -0.41119629145
          -0.38975378871 -0.39793613553 -0.41122034192 -0.4252730608 -0.42956104875 -0.41830819845
          -0.42979058623 -0.41385498643 -0.4205789566 -0.39570999146 -0.39269280434 -0.40686866641
          -0.38447543979 -0.4069609344 -0.40003690124 -0.40660727024 -0.38473531604 -0.39312791824
          -0.40667694807 -0.42092597485 -0.41841599345 -0.40706321597 -0.41863331199 -0.40258419514
          -0.4094440043 -0.38420504332 -0.38122060895 -0.39553394914 -0.37282070518 -0.39560720325
          -0.38861322403 -0.39535850286 -0.37309744954 -0.38168123364 -0.39543715119 -0.40977951884
          -0.4029673934 -0.39146158099 -0.40320566297 -0.38694295287 -0.39393231273 -0.36822885275
          -0.36523556709 -0.37979128957 -0.35658970475 -0.37983968854 -0.3727479279 -0.37969586253
          -0.35688623786 -0.36576029658 -0.37979152799 -0.39431598783 -0.38602367043 -0.37414333224
          -0.38625922799 -0.36947977543 -0.37677752972 -0.35003912449 -0.34700801969 -0.36207565665
          -0.33791473508 -0.36208891869 -0.35475474596 -0.36207008362 -0.33820056915 -0.34750470519
          -0.36215186119 -0.37713560462 -0.37002113461 -0.357552737 -0.37021204829 -0.35270085931
          -0.36043003201 -0.33225432038 -0.32917055488 -0.34491619468 -0.31953173876 -0.34492772818
          -0.33720895648 -0.34498554468 -0.31977540255 -0.32960793376 -0.34508526325 -0.36072343588
          -0.35627123713 -0.34335184097 -0.35643240809 -0.3383616209 -0.34639880061 -0.31716927886
          -0.31402927637 -0.33030185103 -0.30398163199 -0.3302859962 -0.3222977221 -0.33039593697
          -0.30420470238 -0.31439822912 -0.33049294353 -0.34661260247 -0.34604027867 -0.33265259862
          -0.3461561501 -0.32750409842 -0.33583140373 -0.3055691123 -0.30233120918 -0.31915742159
          -0.29192605615 -0.31914314628 -0.31085538864 -0.31924468279 -0.29210394621 -0.30263414979
          -0.31932920218 -0.33599221706 -0.33863463998 -0.32483330369 -0.3386926055 -0.31956410408
          -0.32814976573 -0.29702934623 -0.29371345043 -0.31096455455 -0.28303253651 -0.31095957756
          -0.30242988467 -0.31103244424 -0.28314393759 -0.29394084215 -0.31112912297 -0.32820045948
          -0.33326357603 -0.31928515434 -0.33326920867 -0.31397268176 -0.32266440988 -0.29123571515
          -0.28791743517 -0.30528491735 -0.27713748813 -0.30528652668 -0.29665184021 -0.30532062054
          -0.27720105648 -0.28804975748 -0.305418998 -0.3226313293 -0.32964035869 -0.31560012698
          -0.32962298393 -0.31025275588 -0.31895214319 -0.28748863935 -0.28417533636 -0.30155456066
          -0.27340301871 -0.30154842138 -0.29288157821 -0.30158060789 -0.2734130919 -0.2842156291
          -0.30161073804 -0.31891047955 -0.32657924294 -0.31253781915 -0.32656162977 -0.30719700456
          -0.31588375568 -0.28445702791 -0.281144768 -0.29850405455 -0.27039071918 -0.29850381613
          -0.28982949257 -0.29850423336 -0.27038568258 -0.28114944696 -0.29852297902 -0.31583607197
          -0.19515243173 -0.193155393 -0.195175156 -0.19237948954 -0.19368498027 -0.18870340288
          -0.18823742867 -0.1910238713 -0.1863502264 -0.19099499285 -0.18967090547 -0.19114381075
          -0.18645063043 -0.18842457235 -0.19122374058 -0.19372503459 -0.14908878505 -0.15020896494
          -0.15326879919 -0.14493890107 -0.14749881625 -0.15324479342 -0.15018551052 -0.08658733964
          -0.093776069582 -0.10093451291 -0.10539659858 -0.093769915402 -0.082159757614 -0.093781888485
          -0.10543390363 -0.093780361116 -0.10097742826 -0.08656783402 -0.093787662685 -0.082126364112
          -0.060223504901 -0.06576102227 -0.07124427706 -0.074727773666 -0.065717600286 -0.056626476347
          -0.065721862018 -0.074889846146 -0.065736092627 -0.071535594761 -0.06004466489 -0.065819643438
          -0.056508205831 -0.036053869873 -0.040158715099 -0.0440765284 -0.046586610377 -0.039978925139
          -0.033170688897 -0.039956770837 -0.046849939972 -0.039986107498 -0.044512469321 -0.035650547594
          -0.04016180709 -0.032922524959 -0.01665472053 -0.019322130829 -0.021785005927 -0.023332349956
          -0.019074181095 -0.014521803707 -0.019026119262 -0.023602264002 -0.01906962879 -0.022240513936
          -0.016161723062 -0.019310578704 -0.014235440642 -0.0044851382263 -0.0058336290531 -0.0067235534079
          -0.007163150236 -0.0053109969012 -0.0029647410847 -0.0051974025555 -0.0074632856995 -0.0052712177858
          -0.0071865776554 -0.0038377980236 -0.0057471548207 -0.0026042265818 -3.9165055747e-12 3.7248455188e-12
          7.33380804e-13 -2.2241811257e-12 -1.5302071676e-12 3.5995559831e-12 -2.1883743325e-14 -1.0782822253e-13
          1.2687018726e-14 0 0 0 0
        </DataArray>
        <DataArray type="Float32" Name="uz" format="ascii" RangeMin="-0.068776533008" RangeMax="0.13004098833">
          -0.01535970252 -0.0088281258941 -0.015629790723 -0.0040541887283 0.0089403260499 0.006350228563
          0.012955646962 -0.0082121966407 0.00049241591478 0.0020045889542 0.0045400978997 0.021096903831
          0.015491995029 0.016389213502 -0.022916527465 -0.016426570714 0.0021019603591 -0.0010041387286
          -0.0027459289413 0.011196287349 0.014896900393 0.0037826704793 0.020193416625 -0.00057108979672
          -0.010715107433 -0.022412683815 0.00023136184609 0.047940593213 0.040125459433 0.042240608484
          0.047864858061 0.041497010738 0.045393522829 0.043919712305 0.042033519596 0.049819774926
          0.046361468732 0.032980334014 0.026081869379 0.033350415528 0.03252825886 0.029134264216
          0.035676188767 0.028005378321 0.027452385053 0.037976045161 0.037623416632 0.039507333189
          0.036353882402 0.028728520498 0.033873960376 0.03372393176 0.029551466927 0.041040431708
          0.034902084619 0.047180261463 0.041446842253 0.034896995872 0.040034271777 0.048314705491
          0.038528993726 0.038875296712 0.046062100679 0.053881704807 0.033173557371 0.022516060621
          0.030539236963 0.028139743954 0.038216464221 0.042748853564 0.022893179208 0.037584070116
          0.047253806144 0.053485225886 0.029154248536 0.048500712961 0.036687150598 0.034998871386
          0.048278599977 0.058155875653 0.033378299326 0.018680425361 0.027486540377 0.028301663697
          0.038415983319 0.046232014894 0.016574282199 0.041798427701 0.054001949728 0.060255881399
          0.02279618755 0.0479805246 0.03447271511 0.030346043408 0.050321977586 0.062069859356
          0.033967468888 0.015224806964 0.024384936318 0.029245141894 0.038625705987 0.05000641197
          0.010120383464 0.046886947006 0.061380002648 0.067177906632 0.015884116292 0.046538610011
          0.031869512051 0.024902066216 0.05206136778 0.065274991095 0.035104781389 0.012563765049
          0.021409891546 0.031269434839 0.03890170157 0.054053418338 0.003895889502 0.052899684757
          0.069181218743 0.073918454349 0.0086092883721 0.044004734606 0.028806785122 0.01850114949
          0.053400821984 0.067676872015 0.036772739142 0.010654442012 0.018526639789 0.034312900156
          0.039169106632 0.058328215033 -0.0021246499382 0.059835679829 0.077450238168 0.08045335114
          0.00087378098397 0.040495160967 0.025259815156 0.011166377924 0.054364711046 0.069395832717
          0.038842681795 0.0093708746135 0.015652563423 0.038272906095 0.039371274412 0.062755972147
          -0.008077794686 0.06759672612 0.086130768061 0.086819194257 -0.0073927566409 0.036426302046
          0.021557591856 0.0034959667828 0.055075012147 0.070571795106 0.041207674891 0.0086424453184
          0.012978754938 0.042794305831 0.0396094881 0.067224398255 -0.013680616394 0.075737610459
          0.094884194434 0.09289432317 -0.015647478402 0.032081861049 0.017900351435 -0.0040801903233
          0.055510569364 0.071213521063 0.043732345104 0.0084883766249 0.010632598773 0.047613859177
          0.03985113278 0.071475125849 -0.018666945398 0.083765201271 0.10315232724 0.098345540464
          -0.023454988375 0.027652233839 0.014459929429 -0.011202923954 0.055652547628 0.071252830327
          0.04628321901 0.008885961026 0.00867243018 0.052485361695 0.040089137852 0.075330004096
          -0.022808371112 0.09134722501 0.11063234508 0.10294558853 -0.030472414568 0.023347683251