<VTKFile type="UnstructuredGrid" version="1.0" byte_order="LittleEndian" header_type="UInt64">
  <UnstructuredGrid>
    <Piece NumberOfPoints="791" NumberOfCells="973">
      <PointData>
        <DataArray type="Float32" Name="ux" format="ascii" RangeMin="0" RangeMax="0.59342384338">
          0.4609977603 0.23414042592 0.35913217068 0.16702513397 0.25347474217 0.30732962489
          0.18180674314 0.27101153135 0.14445582032 0.16486991942 0.35461711884 0.41438409686
          0.31391581893 0.20108862221 0.19615015388 0.52404075861 0.31777521968 0.28668192029
          0.48796129227 0.32018262148 0.14573465288 0.48314461112 0.14721167088 0.36356934905
          0.1644513607 0.51470291615 0.45811858773 0.56303149462 0.27325206995 0.44022446871
          0.49168419838 0.56528699398 0.17832534015 0.13386639953 0.35685646534 0.54109883308
          0.42529928684 0.36023113132 0.3518204391 0.35153928399 0.45755088329 0.44902661443
          0.18442739546 0.49748498201 0.58634436131 0.16893227398 0.45901766419 0.50020366907
          0.43560275435 0.42458894849 0.55120331049 0.064758822322 0.11099749804 0.11650842428
          0.44670286775 0.50831729174 0.32098636031 0.076417438686 0.59342384338 0.15714213252
          0.4738047421 0.2429972589 0.51510906219 0.46963563561 0.4824616313 0.18474814296
          0.57624202967 0.5117752552 0.47700050473 0.32159811258 0.42808124423 0.54439526796
          0.53218966722 0.39445096254 0.28898322582 0.35559543967 0.22653879225 0.30139389634
          0.33013421297 0.54201382399 0.34113574028 0.066726110876 0.1331166923 0.26847296953
          0.095668025315 0.38376551867 0.066418170929 0.58942383528 0.24012516439 0.207166031
          0.24156659842 0.38247460127 0.21197757125 0.36272680759 0.341134727 0.49398463964
          0.37434774637 0.1103701964 0.083357520401 0.092084564269 0.57875216007 0.30330491066
          0.14326804876 0.12136929482 0.06796477735 0.49148634076 0.11871041358 0.14821398258
          0.41125565767 0.22771428525 0.1277769506 0.17687959969 0.47647002339 0.50189960003
          0.49806630611 0.44543877244 0.13256299496 0.19888630509 0.11248378456 0.25893306732
          0.51715779305 0.551889956 0.20438843966 0.50251764059 0.22716239095 0.11655316502
          0.12792396545 0.14177292585 0.36206609011 0.38539147377 0.23549254239 0.46295386553
          0.50907695293 0.42445266247 0.54697221518 0.48888427019 0.090897582471 0.19966839254
          0.21088680625 0.42102304101 0.15323655307 0.46899428964 0.15786841512 0.34824803472
          0.37802293897 0.082883648574 0.32265543938 0.36386147141 0.31464728713 0.2120359987
          0.546654284 0.30861055851 0.16215547919 0.32300186157 0.23287189007 0.1846550256
          0.18176162243 0.42809760571 0.2590508759 0.30025884509 0.4093669951 0.51294952631
          0.49309468269 0.10226959735 0.15175047517 0.25570505857 0.19510598481 0.4527053535
          0.15428256989 0.45991551876 0.16447775066 0.32034143806 0.20955808461 0.53047639132
          0.37499794364 0.52588361502 0.52845019102 0.19217711687 0.15520396829 0.32951286435
          0.34689900279 0.42402526736 0.15169610083 0.41613849998 0.46087747812 0.38490349054
          0.45726034045 0.55585604906 0.2950026691 0.18038541079 0.4013005197 0.098045431077
          0.32757005095 0.12414322793 0.33151003718 0.51386487484 0.28994318843 0.1675490737
          0.43942084908 0.56883251667 0.34950330853 0.49658417702 0.19943368435 0.33629581332
          0.47512492537 0.26913464069 0.4123646915 0.38185355067 0.10527587682 0.53111559153
          0.30772903562 0.15334624052 0.098219417036 0.2153390944 0.30850103498 0.1827172637
          0.18968826532 0.48774909973 0.28996422887 0.19201396406 0.35676211119 0.56934726238
          0.32125741243 0.37125214934 0.34311506152 0.52524524927 0.41371390224 0.43514344096
          0.31961405277 0.12625259161 0.25079038739 0.55850285292 0.46280989051 0.41197180748
          0.31758022308 0.099215827882 0.34036585689 0.53253608942 0.15074764192 0.54983669519
          0.54162079096 0.254473418 0.066245488822 0.24075339735 0.25564602017 0.38524970412
          0.089151740074 0.19772957265 0.55139011145 0.24608656764 0.55021601915 0.55249804258
          0.35822635889 0.5836686492 0.47068962455 0.42061147094 0.28924673796 0.36892014742
          0.47808492184 0.59042680264 0.44117125869 0.14547465742 0.24654600024 0.25361439586
          0.24204954505 0.21991880238 0.18298128247 0.49367552996 0.39913001657 0.18223898113
          0.51011484861 0.24875222147 0.30496767163 0.32774302363 0.44314730167 0.20986135304
          0.12562559545 0.56794273853 0.2630815208 0.25674504042 0.35364875197 0.25863355398
          0.32133769989 0.48912388086 0.19353933632 0.53772306442 0.18091718853 0.44930371642
          0.32666566968 0.39862379432 0.25042721629 0.26957526803 0.36210110784 0.27646407485
          0.33365133405 0.15140542388 0.18340796232 0.20539076626 0.44475340843 0.55574643612
          0.18169604242 0.4152123034 0.52270519733 0.16337229311 0.33055329323 0.55531144142
          0.23612007499 0.41393917799 0.3046271503 0.41167381406 0.098060674965 0.47457128763
          0.20886076987 0.47141033411 0.18376280367 0.20031499863 0.31715881824 0.44559675455
          0.42640021443 0.15687331557 0.10891006887 0.23836275935 0.16433481872 0.28294160962
          0.096386961639 0.30989119411 0.38421860337 0.455635041 0.43015176058 0.12276724726
          0.15144535899 0.37322297692 0.46022227407 0.065199196339 0.11703065038 0.26459050179
          0.45907580853 0.49664694071 0.47881889343 0.11281762272 0.39350047708 0.2710698843
          0.52781307697 0.29056292772 0.42421266437 0.085609965026 0.26613804698 0.23159255087
          0.57375198603 0.4162633419 0.16283784807 0.40769356489 0.077202133834 0.1145806089
          0.45208981633 0.29080584645 0.4432426393 0.55198645592 0.43600037694 0.22655875981
          0.56824988127 0.44069877267 0.50582420826 0.36236763 0.16104443371 0.1370536834
          0.51873350143 0.25348457694 0.50246536732 0.22977778316 0.58498090506 0.17902480066
          0.51060211658 0.12780028582 0.22849340737 0.11297156662 0.56576091051 0.5388609767
          0.37681409717 0.096557810903 0.41867315769 0.58758789301 0.25339874625 0.11150474101
          0.19587118924 0.20794603229 0.27070847154 0.34001371264 0.20731389523 0.14333957434
          0.49018624425 0.39536258578 0.43696680665 0.36046615243 0.22651726007 0.59237855673
          0.57620310783 0.50982093811 0.27612283826 0.21648009121 0.072358727455 0.12723152339
          0.35582882166 0.11550620943 0.15261669457 0.50854730606 0.55999666452 0.34037807584
          0.18336324394 0.42222332954 0.22413866222 0.54055166245 0.34192740917 0.29591089487
          0.54516494274 0.54844272137 0.20523007214 0.5914105773 0.4061460197 0.094092659652
          0.56676483154 0.50508868694 0.40635585785 0.41300427914 0.16582892835 0.29189756513
          0.32699716091 0.51819384098 0.3218151629 0.20336546004 0.20459954441 0.48075810075
          0.32395198941 0.25947585702 0.21579387784 0.33832293749 0.097869150341 0.082919329405
          0.31191408634 0.54464697838 0.38656580448 0.40537726879 0.48849102855 0.57202333212
          0.22391371429 0.51639127731 0.32695296407 0.52354252338 0.10720025003 0.24634854496
          0.14362545311 0.1967639327 0.23922589421 0.43374624848 0.30688843131 0.30505952239
          0.060615960509 0.060215033591 0.5792105794 0.10993237793 0.59052801132 0.4508344233
          0.10502455384 0.52544307709 0.23403762281 0.26398178935 0.22003190219 0.35736081004
          0.22931203246 0.42537170649 0.28099000454 0.28645369411 0.12843343616 0.10859887302
          0.14353266358 0.53788787127 0.14135921001 0.43623137474 0.51602858305 0.41318044066
          0.32303270698 0.18592579663 0.12567025423 0.2643930316 0.51276987791 0.39087703824
          0.56842637062 0.4905385673 0.51088821888 0.45866256952 0.34553286433 0.59203028679
          0.58681368828 0.45170849562 0.36097562313 0.061201788485 0.26166242361 0.41369739175
          0.4595374763 0.35168105364 0.23836517334 0.11476633698 0.41393753886 0.18100456893
          0.56894427538 0.58121305704 0.24522705376 0.1375759989 0.52574241161 0.54458534718
          0.57976168394 0.48343765736 0.52398580313 0.40907084942 0.54049682617 0.11199297011
          0.46765911579 0.35352852941 0.14649625123 0.078391686082 0.28417250514 0.16813012958
          0.25629213452 0.53200978041 0.42109897733 0.20451137424 0.28659620881 0.10497961193
          0.54232567549 0.57342213392 0.38282629848 0.12554326653 0.13874745369 0.27844175696
          0.30660364032 0.42791053653 0.42637223005 0.47838586569 0.47995576262 0.1125774011
          0.13676291704 0.37220737338 0.17308171093 0.097248606384 0.29300552607 0.58800125122
          0.37735772133 0.16893747449 0.35268872976 0.11081085354 0.54382264614 0.27335321903
          0.23487697542 0.34651172161 0.24924348295 0.2585400641 0.39033904672 0.40752437711
          0.45089793205 0.3333569169 0.10355208814 0.26307889819 0.2667349577 0.077262930572
          0.14533936977 0.09948015213 0.2634613812 0.28808063269 0.43615564704 0.40864107013
          0.11390102655 0.49284699559 0.55821871758 0.085437387228 0.46350339055 0.20900675654
          0.23183371127 0.1262177527 0.10995008051 0.40692061186 0.45063772798 0.16564427316
          0.10086134821 0.29150366783 0.46228656173 0.5604634881 0.53498226404 0.17179247737
          0.32965931296 0.19641686976 0.46236997843 0.075198426843 0.49921545386 0.094110451639
          0.13932274282 0.22694423795 0.47213631868 0.19502842426 0.07580306381 0.30359518528
          0.44265320897 0.32987174392 0.24592633545 0.13021072745 0.48003518581 0.20288452506
          0.31791198254 0.11535402387 0.33634078503 0.46427536011 0.41005200148 0.36372822523
          0.48056063056 0.39659503102 0.50520223379 0.31138673425 0.18995982409 0.17806364596
          0.39512982965 0.51482820511 0.15424631536 0.52764952183 0.38351541758 0.22740297019
          0.54173576832 0.44115868211 0.52840852737 0.24491925538 0.26678702235 0.52082455158
          0.49684920907 0.31875169277 0.44401714206 0.29143434763 0.27049517632 0.39691245556
          0.14872173965 0.16396288574 0.39880743623 0.38159415126 0.35054689646 0.10448566079
          0.3988738358 0.26386421919 0.51228296757 0.18927314878 0.56574934721 0.17567369342
          0.15931923687 0.47645422816 0.24659962952 0.44229850173 0.2931599319 0.063038781285
          0.56775772572 0.33663517237 0.52036559582 0.21230524778 0.4533046186 0.30482062697
          0.5820299983 0.56924033165 0.5118380785 0.5914042592 0.14705877006 0.19559076428
          0.5760576129 0.53739851713 0.13386885822 0.47691851854 0.48834338784 0.4890511632
          0.065010935068 0.20043116808 0.31166616082 0.09870480001 0.31405770779 0.42714217305
          0.31689289212 0.21161162853 0.072646290064 0.12153062969 0.41275647283 0.10740498453
          0.48069033027 0.30839928985 0.2238022387 0.24638535082 0.50247132778 0.059531629086
          0.35838100314 0.56174826622 0.21060037613 0.16756904125 0.063331387937 0.51248580217
          0.2677616179 0.26114541292 0.37097030878 0.58923953772 0.099471017718 0.47062903643
          0.13331481814 0.069225922227 0.091344237328 0.53510129452 0.32335966825 0.34070724249
          0.26564735174 0.32829380035 0.48278668523 0.48972034454 0.14902214706 0.16435311735
          0.38567143679 0.22999356687 0.49037569761 0.1965059042 0.08478743583 0.22734603286
          0.31060668826 0.1349015981 0.48144376278 0.11290617287 0.49735048413 0.39662444592
          0.3225825429 0.085609160364 0.29111918807 0.24832133949 0.13446512818 0.081083670259
          0.45193314552 0.062506951392 0.56677371264 0.45118242502 0.36720755696 0.57735395432
          0.12654969096 0.36076074839 0.098028421402 0.46233141422 0.57218044996 0.32789355516
          0.2100982368 0.06806512922 0.40418413281 0.45567157865 0.11996497959 0.28353455663
          0.37811359763 0.0822173208 0.39941617846 0.42683774233 0.23049473763 0.26586982608
          0.30884858966 0.36487188935 0.37208989263 0.37174919248 0.57266813517 0.33895522356
          0.31708529592 0.17726632953 0.52842879295 0.36764970422 0.15360315144 0.56057393551
          0.12259510159 0.56227564812 0.27168223262 0.42195135355 0.090482071042 0.062283702195
          0.4374293983 0.54072064161 0.084884099662 0.35139739513 0 0
          0 0 0 0 0 0
          0 0 0 0 0
        </DataArray>
        <DataArray type="Float32" Name="uy" format="ascii" RangeMin="0" RangeMax="0.59361571074">
          0.41732507944 0.072946250439 0.37581291795 0.27759900689 0.14087170362 0.37190440297
          0.10542657971 0.42780068517 0.30508038402 0.41759821773 0.53998208046 0.40448275208
          0.49685078859 0.17989392579 0.24729275703 0.10900007188 0.075123071671 0.53835874796
          0.57284194231 0.060757733881 0.54686325788 0.24616737664 0.20611922443 0.52699041367
          0.40419432521 0.095599681139 0.19270427525 0.5604569912 0.35367369652 0.082736834884
          0.39387878776 0.39019063115 0.31025230885 0.5907458663 0.27130323648 0.061276108027
          0.270588696 0.48393565416 0.33541247249 0.46881976724 0.39845132828 0.53163123131
          0.15187990665 0.1612534821 0.5608446002 0.40101107955 0.29977095127 0.2501732111
          0.4927097559 0.53719717264 0.38260936737 0.25149577856 0.22881169617 0.1948055923
          0.15054607391 0.23194055259 0.48800322413 0.11967622489 0.403126508 0.098855882883
          0.085297569633 0.36103114486 0.19716984034 0.1473365128 0.49147704244 0.405795753
          0.18642936647 0.48067119718 0.42482915521 0.37156379223 0.27962321043 0.42699426413
          0.25498902798 0.4276471436 0.50833636522 0.55670619011 0.26769009233 0.34624314308
          0.091792531312 0.086987778544 0.14057865739 0.58624446392 0.44501194358 0.37500184774
          0.098288804293 0.39837172627 0.41754817963 0.29896709323 0.53144180775 0.43304154277
          0.54940295219 0.50973212719 0.14385986328 0.21880842745 0.073371507227 0.13531795144
          0.17369051278 0.19718699157 0.53706926107 0.46258446574 0.38069823384 0.4496782124
          0.57551556826 0.44037917256 0.25152787566 0.1937725544 0.45878475904 0.41921034455
          0.094492182136 0.55867379904 0.50685852766 0.17156299949 0.49756523967 0.33708286285
          0.47584533691 0.5896577239 0.39164271951 0.58454847336 0.12084261328 0.10536148399
          0.10615365952 0.18708378077 0.51153934002 0.29531612992 0.20151002705 0.1255401969
          0.27537965775 0.17003530264 0.13381075859 0.49975961447 0.23676522076 0.29897269607
          0.076156169176 0.18652100861 0.40665438771 0.24263195693 0.29180797935 0.48445898294
          0.50415325165 0.19377231598 0.38651719689 0.34638544917 0.5694026351 0.28378456831
          0.48489019275 0.28153863549 0.34642276168 0.23036889732 0.28017535806 0.25573641062
          0.26496401429 0.22817057371 0.092604540288 0.46070659161 0.17031152546 0.4217453897
          0.1530803293 0.083221852779 0.19974385202 0.59302634001 0.13049302995 0.18583650887
          0.51276051998 0.11499867588 0.11264592409 0.54035121202 0.15689712763 0.19315181673
          0.18013626337 0.29780367017 0.50302445889 0.078124314547 0.54595422745 0.4427267313
          0.32258969545 0.14449957013 0.35466393828 0.11396386474 0.17906914651 0.16308698058
          0.23280090094 0.20103725791 0.5873054266 0.10086815804 0.20957542956 0.25360736251
          0.48017579317 0.08225658536 0.28419476748 0.19038280845 0.55431616306 0.52892005444
          0.24066483974 0.4596837461 0.55535531044 0.52537423372 0.23195186257 0.17205877602
          0.099874153733 0.57852882147 0.46268606186 0.23817917705 0.55234193802 0.25681880116
          0.27407878637 0.41273501515 0.55532473326 0.14381338656 0.070853680372 0.12224167585
          0.16813547909 0.30615758896 0.38500636816 0.0718357265 0.46140134335 0.50527477264
          0.25755789876 0.18135033548 0.31993180513 0.50284522772 0.28813639283 0.56967496872
          0.45528081059 0.41955509782 0.52721232176 0.56726962328 0.52844947577 0.25336116552
          0.32113736868 0.23650239408 0.079560242593 0.15197956562 0.50119775534 0.25434246659
          0.57182860374 0.57022672892 0.42778399587 0.36124786735 0.33231580257 0.47062250972
          0.24900941551 0.35523083806 0.29457613826 0.56821662188 0.24404892325 0.39666932821
          0.15098525584 0.14578051865 0.11201540381 0.20936132967 0.37517619133 0.23079875112
          0.22628334165 0.31685057282 0.38427087665 0.57846242189 0.24071112275 0.37631669641
          0.51016491652 0.29081842303 0.43026503921 0.39269688725 0.3880726397 0.36160629988
          0.09724945575 0.56021827459 0.45610722899 0.11818490177 0.13912566006 0.091899044812
          0.18238334358 0.37970551848 0.46521392465 0.26758036017 0.14561280608 0.49255260825
          0.3297894001 0.17855398357 0.56675058603 0.41315218806 0.53179299831 0.48285934329
          0.38467046618 0.4486438334 0.37700581551 0.13087929785 0.16103814542 0.25302070379
          0.28437161446 0.21096757054 0.27832731605 0.14513623714 0.34414738417 0.11358818412
          0.48569148779 0.48262584209 0.17983157933 0.29908457398 0.10944288224 0.17067804933
          0.47327053547 0.52292901278 0.44348993897 0.32383263111 0.44238492846 0.57223522663
          0.17091920972 0.1736677736 0.36627399921 0.54375600815 0.088973604143 0.55654340982
          0.43876901269 0.21339160204 0.2095952183 0.44682589173 0.21839877963 0.16248847544
          0.52106916904 0.38247561455 0.17164571583 0.14665743709 0.30974903703 0.20961798728
          0.45067301393 0.064266934991 0.29755041003 0.15278787911 0.28895577788 0.30966469646
          0.26788598299 0.29847022891 0.53120464087 0.5101172328 0.47008052468 0.16641485691
          0.31483903527 0.14775261283 0.16205090284 0.49057844281 0.44461333752 0.40522262454
          0.41668576002 0.53856056929 0.065862610936 0.44450458884 0.3960518837 0.26552924514
          0.18049629033 0.53208613396 0.2396236062 0.1771248877 0.41805258393 0.21747715771
          0.1516264677 0.39469721913 0.14142005146 0.50254625082 0.11174044758 0.25012549758
          0.50174146891 0.34621316195 0.31488344073 0.58518850803 0.12571394444 0.19098469615
          0.43885365129 0.39919707179 0.48094928265 0.57768332958 0.22017459571 0.38679942489
          0.061946365982 0.17884618044 0.325630337 0.094438537955 0.58924382925 0.19103202224
          0.54406118393 0.18918199837 0.30325523019 0.10633491725 0.4324644804 0.48467126489
          0.58141487837 0.20806580782 0.31557765603 0.57883113623 0.48762223125 0.13043498993
          0.12951971591 0.23045636714 0.48237767816 0.51961326599 0.46395471692 0.39784047008
          0.14390535653 0.22257213295 0.26277682185 0.45395511389 0.26319986582 0.37771221995
          0.58716517687 0.18226960301 0.33486399055 0.27711910009 0.22805544734 0.076114870608
          0.34682622552 0.40523797274 0.49398630857 0.10906538367 0.29461145401 0.11240328103
          0.53023147583 0.069119565189 0.46172738075 0.46322479844 0.38288614154 0.45770439506
          0.11047271639 0.42599821091 0.57117491961 0.20836953819 0.49008142948 0.38992568851
          0.11606615782 0.066873960197 0.38983744383 0.15842391551 0.10058968514 0.12452434003
          0.54239213467 0.2764800787 0.25031623244 0.50756067038 0.41480708122 0.31071662903
          0.57824671268 0.54637390375 0.079922273755 0.24816277623 0.51633512974 0.15937164426
          0.19737900794 0.41645419598 0.58947527409 0.4933129847 0.5492118001 0.45797902346
          0.41874355078 0.17191378772 0.4150429368 0.19509762526 0.24069932103 0.30944737792
          0.37794849277 0.15298530459 0.26578572392 0.2446962893 0.46029856801 0.21011561155
          0.18063406646 0.35670375824 0.093232341111 0.4175504446 0.48823225498 0.19219085574
          0.57016861439 0.45143905282 0.37323901057 0.54604136944 0.10968121141 0.4925635457
          0.075158700347 0.1309633702 0.39850637317 0.36732926965 0.33038312197 0.59361571074
          0.49232009053 0.41922169924 0.57034999132 0.22257463634 0.5629350543 0.45404869318
          0.22079572082 0.075785562396 0.27541360259 0.33406966925 0.48371449113 0.20883750916
          0.51624959707 0.16793867946 0.57604211569 0.47490817308 0.10378261656 0.1188846007
          0.25372770429 0.15743033588 0.1852415055 0.28268817067 0.26822128892 0.17412635684
          0.48970144987 0.1606362313 0.23340162635 0.43452340364 0.42135643959 0.096883997321
          0.52087777853 0.081853121519 0.57149165869 0.2790120244 0.38811954856 0.14440108836
          0.21498993039 0.40647670627 0.098844334483 0.44053807855 0.24761001766 0.088644891977
          0.092738360167 0.12701745331 0.28623259068 0.20960743725 0.32325866818 0.060540113598
          0.52181237936 0.16336990893 0.21445153654 0.54862594604 0.29179161787 0.3971413672
          0.51080024242 0.30763071775 0.12576679885 0.30170240998 0.30625554919 0.55963516235
          0.44819748402 0.51141417027 0.34505209327 0.59335827827 0.3290938139 0.38230791688
          0.46591791511 0.076533444226 0.26202836633 0.48073580861 0.33740514517 0.12365642935
          0.38549098372 0.31579649448 0.3874181509 0.18320539594 0.16251453757 0.29091519117
          0.11280360818 0.46709463 0.45985379815 0.2904638052 0.11696019024 0.58118110895
          0.080950319767 0.56232243776 0.43159720302 0.24588048458 0.33720526099 0.56953674555
          0.54791152477 0.52974379063 0.29281336069 0.50784426928 0.20932897925 0.21615159512
          0.57375633717 0.27503314614 0.39299333096 0.2928545475 0.12842403352 0.40893760324
          0.27707898617 0.39526861906 0.27172964811 0.47874388099 0.4773465097 0.5204744339
          0.098112508655 0.46818396449 0.32428917289 0.20814546943 0.39691603184 0.52493536472
          0.1280939281 0.57030272484 0.5487062335 0.255882442 0.51437157393 0.40988981724
          0.32577604055 0.48136860132 0.29110974073 0.58192163706 0.51510542631 0.069378979504
          0.35731247067 0.20623116195 0.32000681758 0.27966931462 0.45022198558 0.067721143365
          0.54504543543 0.11045420915 0.43454676867 0.50995254517 0.096641115844 0.36605852842
          0.27684721351 0.47116324306 0.4865219593 0.30955299735 0.57952547073 0.23572406173
          0.085832692683 0.3196850121 0.29951906204 0.19040170312 0.38881796598 0.063651584089
          0.40303614736 0.32584431767 0.25432088971 0.56640130281 0.40011075139 0.070077717304
          0.35827034712 0.38738501072 0.11050929874 0.28720650077 0.48054352403 0.44973054528
          0.54859942198 0.33245223761 0.24753075838 0.081710793078 0.59004563093 0.15769892931
          0.52467632294 0.57797163725 0.22583286464 0.43707945943 0.087321013212 0.4293397665
          0.26279696822 0.36770892143 0.34505698085 0.44870305061 0.12958389521 0.57957804203
          0.20402990282 0.2558349669 0.14994975924 0.15375100076 0.21135880053 0.26822963357
          0.53630435467 0.48923525214 0.416526407 0.2740059793 0.33557620645 0.22016651928
          0.28252008557 0.57675373554 0.16106823087 0.53046178818 0.58233571053 0.17911989987
          0.34349927306 0.37165650725 0.55790436268 0.20451258123 0.3310804069 0.10749480128
          0.13445198536 0.36059203744 0.099540017545 0.55277329683 0.082959398627 0.14784480631
          0.17660698295 0.28287428617 0.35070759058 0.25095289946 0.26291877031 0.54203337431
          0.19960589707 0.27663099766 0.070560842752 0.1656114161 0.51809954643 0.46435216069
          0.44975218177 0.42669734359 0.080278366804 0.13472546637 0.59360802174 0.095097653568
          0.30012121797 0.53148782253 0.37596076727 0.29574805498 0.35120221972 0.13171473145
          0.54586011171 0.50944924355 0.23674322665 0.20190258324 0.58917808533 0.56299179792
          0.092977926135 0.46039280295 0.41169559956 0.58226633072 0.18454360962 0.55457311869
          0.35354414582 0.22264301777 0.28947386146 0.39240005612 0.18562096357 0.16928689182
          0.43562194705 0.47062477469 0.18524476886 0.49328511953 0.26670622826 0.34907034039
          0.52523809671 0.44866555929 0.086533002555 0.37890872359 0.2005212158 0.39518225193
          0.2471242398 0.38941970468 0.0618686378 0.26831561327 0.10582232475 0.41848936677
          0.18913264573 0.33148786426 0.58348381519 0.34102594852 0.095286794007 0.26878502965
          0.35178744793 0.1684948802 0.31154105067 0.55166113377 0.22911477089 0.38406386971
          0.1615844816 0.14002400637 0.48666498065 0.38688001037 0.20779511333 0.17076553404
          0.27186912298 0.12372032553 0.45940491557 0.47627958655 0.086526371539 0.29273059964
          0.074224188924 0.10528340191 0.3232281208 0.31552508473 0 0
          0 0 0 0 0 0
          0 0 0 0 0
        </DataArray>
        <DataArray type="Float32" Name="uz" format="ascii" RangeMin="0" RangeMax="0.59418708086">
          0.35717082024 0.12934577465 0.45002582669 0.56074094772 0.3728710413 0.24652990699
          0.44070011377 0.071842119098 0.23552387953 0.23463921249 0.28064292669 0.35977199674
          0.32099401951 0.29416632652 0.17907965183 0.38544544578 0.50777900219 0.56207579374
          0.29917898774 0.29678168893 0.20669186115 0.47033700347 0.54646605253 0.20650482178
          0.33119893074 0.38670557737 0.38823217154 0.41582837701 0.33537098765 0.5512111187
          0.44021502137 0.075686305761 0.44273853302 0.40211421251 0.12992891669 0.59418708086
          0.28311547637 0.54603689909 0.39739397168 0.24767521024 0.40510246158 0.1889230758
          0.24152007699 0.34328070283 0.3008877337 0.46419161558 0.13491371274 0.47142156959
          0.40328419209 0.36709854007 0.51984983683 0.32638183236 0.34807106853 0.068225003779
          0.093085095286 0.19798412919 0.33328288794 0.22507803142 0.27946329117 0.1977212131
          0.48890563846 0.50986212492 0.46057382226 0.29333949089 0.46238750219 0.14527799189
          0.29869008064 0.54875516891 0.30575352907 0.31391057372 0.57413119078 0.063591971993
          0.40940707922 0.43675732613 0.3861540854 0.46791613102 0.39474445581 0.2720592916
          0.21798703074 0.45753127337 0.17345172167 0.54002708197 0.38616392016 0.27130246162
          0.062700636685 0.51697337627 0.4372137785 0.27875354886 0.074450664222 0.38044914603
          0.47590026259 0.50569647551 0.25366470218 0.36114609241 0.21540910006 0.0615596883
          0.3231870532 0.57448083162 0.52647477388 0.21227274835 0.33558142185 0.55849897861
          0.34705325961 0.3122215271 0.50096148252 0.47183099389 0.36793234944 0.17043682933
          0.5242459178 0.16075667739 0.4315765202 0.47751513124 0.53805416822 0.13892315328
          0.080527335405 0.10852550715 0.25601238012 0.3201996088 0.4361474216 0.29379892349
          0.38736137748 0.43269053102 0.42758256197 0.45004224777 0.47012335062 0.57714039087
          0.58933490515 0.23773823678 0.35105368495 0.20826414227 0.3738450408 0.073271811008
          0.47984138131 0.52208030224 0.34978505969 0.1448123306 0.5779530406 0.12004255503
          0.5445112586 0.38705536723 0.2742780149 0.58336889744 0.072348631918 0.24109634757
          0.24757401645 0.10739411414 0.46750184894 0.24980247021 0.49138048291 0.26876696944
          0.43620833755 0.39921712875 0.1390581876 0.43191874027 0.16493961215 0.58727455139
          0.38979071379 0.53339713812 0.13534834981 0.26907730103 0.079600125551 0.30286544561
          0.48875963688 0.10063082725 0.2944547832 0.51166385412 0.079772531986 0.47573137283
          0.57694470882 0.074865594506 0.46086087823 0.55760091543 0.20781882107 0.16440956295
          0.55102670193 0.59247201681 0.4573096931 0.26955780387 0.29179552197 0.21030849218
          0.49790456891 0.30897927284 0.44736257195 0.27790307999 0.30712512136 0.39395749569
          0.50305992365 0.095804095268 0.58391273022 0.20844000578 0.1963493377 0.18064953387
          0.41584521532 0.21875797212 0.56764066219 0.29097351432 0.41261199117 0.13532958925
          0.26520368457 0.25638008118 0.49865961075 0.089726947248 0.23034895957 0.48805013299
          0.41380047798 0.50046300888 0.30461928248 0.21566545963 0.10575447232 0.52706742287
          0.3900848031 0.56371742487 0.51839548349 0.27024397254 0.59269028902 0.15269424021
          0.40906786919 0.28735455871 0.42523130774 0.12043552846 0.21441082656 0.29751506448
          0.21488493681 0.30744165182 0.46866235137 0.43675619364 0.53422492743 0.10941761732
          0.47668758035 0.27412480116 0.55575233698 0.57973855734 0.55504667759 0.26107731462
          0.14739452302 0.2710249126 0.32043612003 0.073465622962 0.18148593605 0.26784357429
          0.14322839677 0.4927431345 0.13849671185 0.45851191878 0.33973199129 0.17559352517
          0.20749789476 0.38475775719 0.26927304268 0.40902522206 0.51002269983 0.23018197715
          0.266805619 0.5634559989 0.46160131693 0.22897902131 0.42893964052 0.090593479574
          0.2757281065 0.54415041208 0.20705704391 0.54554218054 0.23020575941 0.53184348345
          0.41898351908 0.52161633968 0.44809389114 0.46724137664 0.38809856772 0.5863724947
          0.096804857254 0.45053419471 0.23176068068 0.28279203176 0.24766403437 0.33286601305
          0.39167064428 0.12311021239 0.1984808594 0.20980064571 0.51643627882 0.13140849769
          0.25908389688 0.40900877118 0.56732106209 0.46317407489 0.55851507187 0.44691231847
          0.10379333049 0.10802205652 0.14340661466 0.3278093636 0.43811613321 0.45163536072
          0.47280171514 0.3384642303 0.31063693762 0.58261418343 0.25746405125 0.4667571485
          0.10578842461 0.41628453135 0.29893320799 0.26124802232 0.43140652776 0.45369443297
          0.53138613701 0.23489573598 0.57701528072 0.44951149821 0.18468829989 0.077746599913
          0.061489615589 0.18773511052 0.48875051737 0.18081316352 0.51616150141 0.185657233