<VTKFile type="UnstructuredGrid" version="1.0" byte_order="LittleEndian" header_type="UInt64">
  <UnstructuredGrid>
    <Piece NumberOfPoints="791" NumberOfCells="973">
      <PointData>
        <DataArray type="Float32" Name="ux" format="ascii" RangeMin="-0.74667656422" RangeMax="2.295532861e-11">
          -0.06632565707 -0.072220630944 -0.074585042894 -0.065235957503 -0.066344276071 -0.074514247477
          -0.072284415364 -0.066299214959 -0.070706643164 -0.067301683128 -0.065231069922 -0.070759557188
          -0.066350623965 -0.067361339927 -0.070785142481 -0.067393280566 -0.070803105831 -0.067347414792
          -0.078233316541 -0.07029543817 -0.07831928879 -0.078199930489 -0.078272007406 -0.078256197274
          -0.070330813527 -0.078343324363 -0.064518466592 -0.14524678886 -0.14556385577 -0.14573007822
          -0.11869892478 -0.11904565245 -0.11918579042 -0.14514435828 -0.11862906814 -0.14482720196
          -0.11829598248 -0.14554657042 -0.14593678713 -0.14576862752 -0.11904850602 -0.11942861229
          -0.11925835907 -0.14566397667 -0.11917821318 -0.14543689787 -0.11893155426 -0.14516736567
          -0.11867681146 -0.14608214796 -0.11956033111 -0.14529633522 -0.11883486062 -0.14491564035
          -0.11845401675 -0.144707039 -0.11821076274 -0.14603608847 -0.11949563026 -0.17290392518
          -0.17322647572 -0.1733802557 -0.17281195521 -0.17249691486 -0.17321412265 -0.17360791564
          -0.1734341085 -0.17333249748 -0.17310373485 -0.17283779383 -0.17374706268 -0.17296291888
          -0.17258904874 -0.1723832041 -0.17368869483 -0.20160648227 -0.20192651451 -0.20207571983
          -0.20151682198 -0.20120723546 -0.20191603899 -0.20231558383 -0.20213800669 -0.20203241706
          -0.20180639625 -0.20153905451 -0.20245438814 -0.20165687799 -0.20128628612 -0.20109052956
          -0.20238800347 -0.23122636974 -0.23154564202 -0.2316890806 -0.23113980889 -0.2308345139
          -0.23153629899 -0.23194089532 -0.23175953329 -0.23165135086 -0.23142716289 -0.23115924001
          -0.23207829893 -0.23127101362 -0.23090468347 -0.23071654141 -0.23200432956 -0.26165223122
          -0.26197093725 -0.26210927963 -0.26156884432 -0.26126766205 -0.26196295023 -0.26237240434
          -0.26218727231 -0.26207646728 -0.26185452938 -0.26158589125 -0.26250857115 -0.26169136167
          -0.26132887602 -0.26114842296 -0.26242738962 -0.29277902842 -0.2930971086 -0.293230474
          -0.29269811511 -0.29240089655 -0.29309013486 -0.29350426793 -0.29331594706 -0.29320266843
          -0.29298222065 -0.29271289706 -0.29363968968 -0.29281270504 -0.29245370626 -0.29228028655
          -0.29355180264 -0.32450735569 -0.32482492924 -0.32495418191 -0.32442927361 -0.3241353035
          -0.32481920719 -0.32523784041 -0.32504615188 -0.32493060827 -0.32471194863 -0.32444193959
          -0.32537227869 -0.32453638315 -0.324180305 -0.32401359081 -0.32527804375 -0.35674667358
          -0.35706344247 -0.35718876123 -0.35667058825 -0.35638004541 -0.35705897212 -0.35748124123
          -0.35728684068 -0.35716900229 -0.35695189238 -0.35668131709 -0.35761484504 -0.3567712605
          -0.35641801357 -0.35625720024 -0.35751500726 -0.38941270113 -0.38972920179 -0.38985040784
          -0.38933899999 -0.38905104995 -0.38972532749 -0.39015111327 -0.38995426893 -0.38983425498
          -0.38961884379 -0.38934773207 -0.39028376341 -0.38943317533 -0.38908281922 -0.38892751932
          -0.39017876983 -0.4224293232 -0.42274516821 -0.42286321521 -0.42235735059 -0.42207249999
          -0.42274221778 -0.423171103 -0.42297199368 -0.42285060883 -0.42263606191 -0.42236471176
          -0.42330315709 -0.42244613171 -0.42209818959 -0.42194795609 -0.42319351435 -0.45572772622
          -0.45604345202 -0.4561586082 -0.45565769076 -0.45537510514 -0.45604109764 -0.45647275448
          -0.45627167821 -0.45614850521 -0.45593520999 -0.45566359162 -0.45660445094 -0.45574140549
          -0.45539566875 -0.45524957776 -0.45649057627 -0.48924827576 -0.48956346512 -0.48967587948
          -0.4891795218 -0.48889887333 -0.48956170678 -0.48999598622 -0.48979285359 -0.48966866732
          -0.48945629597 -0.48918414116 -0.49012708664 -0.48925885558 -0.48891508579 -0.48877280951
          -0.49000963569 -0.52293771505 -0.52325230837 -0.52336263657 -0.52287018299 -0.52259141207
          -0.52325135469 -0.52368742228 -0.52348303795 -0.52335733175 -0.52314609289 -0.52287381887
          -0.52381819487 -0.5229460001 -0.52260375023 -0.52246469259 -0.52369749546 -0.55675029755
          -0.55706441402 -0.55717283487 -0.55668395758 -0.55640673637 -0.55706357956 -0.55750143528
          -0.55729597807 -0.5571693778 -0.5569588542 -0.55668646097 -0.55763155222 -0.5567561388
          -0.55641549826 -0.55627954006 -0.55750846863 -0.59064692259 -0.59096062183 -0.59106743336
          -0.59058129787 -0.590305686 -0.59096038342 -0.59139949083 -0.59119284153 -0.5910654664
          -0.59085541964 -0.5905829072 -0.59152907133 -0.59065085649 -0.59031146765 -0.59017831087
          -0.59140372276 -0.62459617853 -0.62490963936 -0.625015378 -0.62453138828 -0.62425690889
          -0.62490952015 -0.62534958124 -0.62514215708 -0.62501430511 -0.62480485439 -0.62453210354
          -0.62547898293 -0.62459874153 -0.62426006794 -0.62412875891 -0.62535190582 -0.65857428312
          -0.65888738632 -0.65899205208 -0.65850973129 -0.65823620558 -0.65888732672 -0.65932816267
          -0.65912014246 -0.65899181366 -0.65878301859 -0.65851020813 -0.65945726633 -0.65857547522
          -0.65823769569 -0.65810775757 -0.65932917595 -0.69256436825 -0.69287717342 -0.69298124313
          -0.69249981642 -0.69222694635 -0.69287705421 -0.69331812859 -0.69311004877 -0.69298136234
          -0.6927728653 -0.69249999523 -0.69344717264 -0.69256490469 -0.69222742319 -0.69209825993
          -0.69331854582 -0.72655671835 -0.72686940432 -0.72697353363 -0.72649246454 -0.72621959448
          -0.72686940432 -0.72731071711 -0.72710233927 -0.72697365284 -0.726765275 -0.72649252415
          -0.72743928432 -0.72655701637 -0.72621977329 -0.72609096766 -0.72731083632 -0.084051497281
          -0.088403664529 -0.084323622286 -0.089726775885 -0.086970925331 -0.096615105867 -0.097833566368
          -0.092653922737 -0.10080899298 -0.092447280884 -0.094815194607 -0.092848211527 -0.10058645159
          -0.097214952111 -0.091996654868 -0.087721690536 -0.084435902536 -0.08583573252 -0.09054184705
          -0.078311182559 -0.082073949277 -0.090543195605 -0.08582778275 -0.11995738 -0.11955530941
          -0.11943200976 -0.14715732634 -0.14672993124 -0.14663532376 -0.11998362094 -0.14715407789
          -0.12029542029 -0.1474930346 -0.11959440261 -0.11914548278 -0.11929338425 -0.14673835039
          -0.14625896513 -0.14644792676 -0.11956825107 -0.14667411149 -0.11967770755 -0.14683750272
          -0.11996565759 -0.14712375402 -0.11888816953 -0.14603827894 -0.11994539946 -0.14708185196
          -0.12022056431 -0.14738439023 -0.12036962062 -0.14754715562 -0.11899442226 -0.1461802721
          -0.17552533746 -0.17511224747 -0.17500914633 -0.17553585768 -0.17586421967 -0.17512480915
          -0.17465057969 -0.17483632267 -0.17506091297 -0.175222978 -0.17551083863 -0.17443217337
          -0.17546984553 -0.17577604949 -0.17593231797 -0.17456625402 -0.20499585569 -0.20458887517
          -0.20448552072 -0.20501254499 -0.20534031093 -0.20459970832 -0.20412109792 -0.20431444049
          -0.20452818274 -0.20470032096 -0.20499075949 -0.20391240716 -0.20494502783 -0.20526057482
          -0.20541650057 -0.20404928923 -0.2354337126 -0.2350332886 -0.234928146 -0.23545727134
          -0.23578199744 -0.23504246771 -0.23456202447 -0.23476015031 -0.23496557772 -0.23514522612
          -0.23543773592 -0.23436096311 -0.23538899422 -0.2357121855 -0.23586659133 -0.23449862003
          -0.26672148705 -0.26632747054 -0.26622053981 -0.26675149798 -0.26707425714 -0.26633533835
          -0.26585227251 -0.26605555415 -0.26625314355 -0.2664398849 -0.26673418283 -0.26565864682
          -0.26668256521 -0.26701325178 -0.26716652513 -0.26579752564 -0.29874914885 -0.29836040735
          -0.29825228453 -0.29878470302 -0.2991052866 -0.29836705327 -0.29788213968 -0.29808992147
          -0.29828009009 -0.29847368598 -0.29876992106 -0.29769533873 -0.29871496558 -0.2990527451
          -0.29920503497 -0.29783505201 -0.33141243458 -0.33102920651 -0.33091971278 -0.33145362139
          -0.33177223802 -0.33103474975 -0.33054804802 -0.33075985312 -0.33094319701 -0.33114302158
          -0.3314409256 -0.33036744595 -0.3313832581 -0.33172735572 -0.33187875152 -0.33050838113
          -0.36461654305 -0.3642385304 -0.36412772536 -0.36466258764 -0.36497962475 -0.36424309015
          -0.36375451088 -0.36396989226 -0.36414700747 -0.36435258389 -0.36465212703 -0.36357989907
          -0.36459174752 -0.3649417758 -0.36509200931 -0.36372128129 -0.39827439189 -0.39790090919
          -0.39778894186 -0.39832493663 -0.39864018559 -0.39790445566 -0.39741465449 -0.39763361216
          -0.39780467749 -0.39801540971 -0.39831590652 -0.39724516869 -0.39825385809 -0.39860871434
          -0.39875805378 -0.39738747478 -0.43230688572 -0.43193754554 -0.43182486296 -0.43236148357
          -0.43267467618 -0.43194046617 -0.43144962192 -0.43167120218 -0.43183732033 -0.43205267191
          -0.43235400319 -0.43128487468 -0.43228974938 -0.43264919519 -0.43279787898 -0.4314275682
          -0.46664255857 -0.4662770927 -0.46616369486 -0.4667006433 -0.46701258421 -0.46627929807
          -0.46578779817 -0.46601212025 -0.46617352962 -0.46639275551 -0.46669492126 -0.46562755108
          -0.46662887931 -0.46699225903 -0.46713995934 -0.46577051282 -0.50121772289 -0.50085622072
          -0.50074201822 -0.50127929449 -0.50158935785 -0.50085771084 -0.5003656745 -0.50059211254
          -0.50074934959 -0.50097155571 -0.50127464533 -0.5002092123 -0.50120717287 -0.50157344341
          -0.50172048807 -0.50035250187 -0.53597640991 -0.53561806679 -0.53550326824 -0.5360404253
          -0.53634917736 -0.53561884165 -0.53512680531 -0.53535491228 -0.53550833464 -0.5357336998
          -0.53603702784 -0.53497380018 -0.53596806526 -0.53633725643 -0.53648346663 -0.53511732817
          -0.57086908817 -0.57051312923 -0.57039803267 -0.57093548775 -0.57124304771 -0.57051384449
          -0.57002133131 -0.5702508688 -0.57040148973 -0.57062917948 -0.57093280554 -0.569871068
          -0.57086288929 -0.57123440504 -0.571380198 -0.5700147748 -0.60585361719 -0.60549980402
          -0.6053841114 -0.60592186451 -0.60622888803 -0.60550028086 -0.60500717163 -0.60523825884
          -0.60538607836 -0.60561615229 -0.60592007637 -0.60485935211 -0.60584944487 -0.60622322559
          -0.6063683629 -0.60500299931 -0.64089620113 -0.6405441761 -0.64042806625 -0.64096623659
          -0.64127242565 -0.64054405689 -0.64005070925 -0.64028263092 -0.64042890072 -0.64066034555
          -0.64096522331 -0.63990449905 -0.64089363813 -0.64126902819 -0.64141386747 -0.64004832506
          -0.67597138882 -0.67562031746 -0.67550384998 -0.67604237795 -0.67634832859 -0.67562025785
          -0.67512607574 -0.67535895109 -0.6755040288 -0.67573654652 -0.67604196072 -0.67498105764
          -0.6759698391 -0.67634660006 -0.67649137974 -0.67512500286 -0.71106106043 -0.71071028709
          -0.71059381962 -0.71113276482 -0.71143853664 -0.7107103467 -0.71021610498 -0.71044939756
          -0.71059393883 -0.7108271122 -0.71113264561 -0.71007144451 -0.71106040478 -0.7114379406
          -0.71158230305 -0.71021574736 -0.74615442753 -0.74580413103 -0.74568760395 -0.74622666836
          -0.74653244019 -0.74580425024 -0.74530977011 -0.7455432415 -0.74568742514 -0.74592083693
          -0.74622648954 -0.74516528845 -0.74615424871 -0.74653214216 -0.74667656422 -0.7453097105
          -0.084356784821 -0.088350079954 -0.084033966064 -0.090229578316 -0.087839283049 -0.096731953323
          -0.097428970039 -0.092366471887 -0.10090744495 -0.092619433999 -0.09539103508 -0.092091321945
          -0.10115601867 -0.098149806261 -0.093074150383 -0.08698900789 -0.084454514086 -0.085822813213
          -0.090592987835 -0.078310601413 -0.082128696144 -0.090647183359 -0.085931718349 -0.043358303607
          -0.043095577508 -0.043067488819 -0.043375812471 -0.04327667132 -0.043520513922 -0.043310754001
          -0.043554026634 -0.043291211128 -0.043393265456 -0.043080907315 -0.043129745871 -0.043362773955
          -0.02681389451 -0.026663495228 -0.026560634375 -0.0267818477 -0.026679694653 -0.026912199333
          -0.026692893356 -0.026929929852 -0.026688490063 -0.026840932667 -0.026573697105 -0.026687178761
          -0.026778832078 -0.014580980875 -0.014398253523 -0.014310438186 -0.014551609755 -0.014449526556
          -0.01469057519 -0.014463336207 -0.014707645401 -0.014456149191 -0.014601527713 -0.014316082001
          -0.014414894395 -0.014544742182 -0.0062786792405 -0.0061087636277 -0.0060186400078 -0.0062474161386
          -0.0061516510323 -0.0063816704787 -0.0061652092263 -0.0063962629065 -0.0061557237059 -0.0062939417548
          -0.0060198972933 -0.0061191166751 -0.0062395576388 -0.0016025509685 -0.0013923003571 -0.0012806806481
          -0.0015600241022 -0.0014350509737 -0.0017263905611 -0.0014455597848 -0.0017408458516 -0.0014369364362
          -0.0016146447742 -0.0012768305605 -0.0013974201865 -0.0015487326309 1.251048657e-11 -1.0087779917e-10
          2.295532861e-11 -6.7864057473e-13 -4.0294950536e-12 -2.9152479042e-12 1.2232802661e-12 8.9173553456e-15
          -6.1447450352e-15 0 0 0 -6.7102280424e-15
        </DataArray>
        <DataArray type="Float32" Name="uy" format="ascii" RangeMin="-0.78389394283" RangeMax="3.138814729e-12">
          -0.068838492036 -0.074838452041 -0.077264986932 -0.06781975925 -0.068831756711 -0.077229045331
          -0.074906848371 -0.068796023726 -0.073388785124 -0.069947466254 -0.067826494575 -0.073592536151
          -0.068882495165 -0.070012196898 -0.073579110205 -0.070015311241 -0.073462329805 -0.069983720779
          -0.081089243293 -0.072996050119 -0.081205829978 -0.081149049103 -0.081264048815 -0.081176027656
          -0.073035173118 -0.081222496927 -0.067075647414 -0.15274351835 -0.1531265676 -0.15280066431
          -0.12371390313 -0.1241055578 -0.12375730276 -0.15324556828 -0.1242358163 -0.15302972496
          -0.1240086332 -0.15375822783 -0.15382488072 -0.15346637368 -0.12474564463 -0.12482313812
          -0.1244520992 -0.1540351212 -0.12502124906 -0.15345197916 -0.12444286048 -0.15367200971
          -0.12466846406 -0.15350691974 -0.12449852377 -0.15409727395 -0.12508875132 -0.15392497182
          -0.12493345886 -0.15351231396 -0.12450972944 -0.15312086046 -0.12408506125 -0.18295766413
          -0.18333606422 -0.18300633132 -0.18345670402 -0.18324020505 -0.18397244811 -0.18404237926
          -0.18367572129 -0.18425607681 -0.18366347253 -0.18388174474 -0.18371278048 -0.18431000412
          -0.18412937224 -0.18371619284 -0.18332007527 -0.21423833072 -0.21460941434 -0.21428197622
          -0.21473048627 -0.21451659501 -0.21524587274 -0.2153159976 -0.21494683623 -0.21553337574
          -0.21493600309 -0.21515205503 -0.21497909725 -0.21558174491 -0.21539397538 -0.21498295665
          -0.214587152 -0.24645842612 -0.24682319164 -0.24649648368 -0.2469445914 -0.24673260748
          -0.24746017158 -0.24753114581 -0.24715861678 -0.2477517575 -0.24714899063 -0.24736276269
          -0.24718691409 -0.2477940917 -0.24759967625 -0.24719034135 -0.2467943579 -0.2795034647
          -0.27986267209 -0.27953624725 -0.27998408675 -0.27977389097 -0.28050035238 -0.28057163954
          -0.28019589186 -0.28079545498 -0.28018769622 -0.28039956093 -0.28022062778 -0.28083255887
          -0.28063139319 -0.28022375703 -0.27982741594 -0.31326675415 -0.31362059712 -0.31329467893
          -0.3137422204 -0.31353372335 -0.31425908208 -0.3143312037 -0.31395211816 -0.31455814838
          -0.31394520402 -0.31415528059 -0.31397342682 -0.31458982825 -0.31438279152 -0.31397640705
          -0.31357967854 -0.3476485908 -0.34799748659 -0.34767240286 -0.34811970592 -0.34791275859
          -0.34863704443 -0.34870946407 -0.34832796454 -0.34893938899 -0.34832194448 -0.34853050113
          -0.34834599495 -0.34896659851 -0.3487534225 -0.34834867716 -0.34795123339 -0.38255742192
          -0.38290214539 -0.38257738948 -0.3830241859 -0.3828188777 -0.38354188204 -0.38361501694
          -0.38323074579 -0.38384759426 -0.3832257688 -0.38343298435 -0.38324597478 -0.38387003541
          -0.38365194201 -0.38324847817 -0.382850945 -0.41790932417 -0.41824999452 -0.41792562604
          -0.41837239265 -0.41816824675 -0.4188901484 -0.41896393895 -0.41857740283 -0.41919851303
          -0.41857349873 -0.41877883673 -0.4185898602 -0.4192173183 -0.41899448633 -0.41859203577
          -0.41819432378 -0.45362868905 -0.4539655447 -0.45364180207 -0.45408809185 -0.45388510823
          -0.45460638404 -0.4546803534 -0.45429170132 -0.45491698384 -0.45428854227 -0.45449283719
          -0.45430189371 -0.45493209362 -0.45470517874 -0.45430383086 -0.45390582085 -0.48964631557
          -0.48997983336 -0.48965668678 -0.49010246992 -0.48990046978 -0.49062108994 -0.49069550633
          -0.49030509591 -0.49093410373 -0.49030253291 -0.49050578475 -0.49031311274 -0.49094611406
          -0.49071523547 -0.49031502008 -0.48991698027 -0.52590042353 -0.52623093128 -0.52590805292
          -0.52635377645 -0.52615261078 -0.52687269449 -0.52694737911 -0.52655547857 -0.52718776464
          -0.52655357122 -0.52675557137 -0.52656143904 -0.52719700336 -0.52696281672 -0.52656334639
          -0.52616494894 -0.56233674288 -0.56266486645 -0.56234222651 -0.56278753281 -0.56258749962
          -0.56330674887 -0.56338167191 -0.56298822165 -0.56362318993 -0.56298696995 -0.56318831444
          -0.5629928112 -0.56362986565 -0.56339299679 -0.56299436092 -0.56259608269 -0.5989087224
          -0.59923440218 -0.59891235828 -0.59935736656 -0.59915751219 -0.59987616539 -0.59995138645
          -0.59955704212 -0.60019397736 -0.59955620766 -0.59975659847 -0.59956032038 -0.60019856691
          -0.59995931387 -0.59956121445 -0.59916347265 -0.6355754137 -0.63589948416 -0.63557767868
          -0.63602215052 -0.63582313061 -0.63654094934 -0.63661634922 -0.63622128963 -0.6368598938
          -0.63622069359 -0.63642048836 -0.63622331619 -0.63686293364 -0.63662153482 -0.63622432947
          -0.63582664728 -0.67230254412 -0.67262512445 -0.67230385542 -0.67274773121 -0.67254936695
          -0.67326670885 -0.67334240675 -0.67294663191 -0.67358642817 -0.67294627428 -0.67314535379
          -0.67294752598 -0.67358827591 -0.67334538698 -0.67294818163 -0.67255085707 -0.70906257629
          -0.70938384533 -0.70906287432 -0.7095066309 -0.70930832624 -0.71002537012 -0.71010106802
          -0.70970493555 -0.71034580469 -0.70970499516 -0.70990359783 -0.70970529318 -0.71034663916
          -0.71010243893 -0.70970588923 -0.70930892229 -0.74583572149 -0.74615633488 -0.74583590031
          -0.74627912045 -0.7460808754 -0.74679774046 -0.74687355757 -0.74647730589 -0.74711835384
          -0.74647736549 -0.74667549133 -0.74647718668 -0.74711877108 -0.7468740344 -0.7464774847
          -0.74608099461 -0.78261131048 -0.78293186426 -0.78261125088 -0.78305441141 -0.78285622597
          -0.78357332945 -0.78364884853 -0.78325265646 -0.78389382362 -0.78325259686 -0.7834507823
          -0.78325265646 -0.78389394283 -0.78364896774 -0.78325271606 -0.78285610676 -0.086448140442
          -0.091223932803 -0.086504243314 -0.093003161252 -0.090073250234 -0.10045062751 -0.10153634846
          -0.095875829458 -0.10500849038 -0.095865741372 -0.098741069436 -0.095910057425 -0.10508338362
          -0.10166428983 -0.095932900906 -0.090167887509 -0.087525144219 -0.089027769864 -0.093894198537
          -0.081153303385 -0.085081078112 -0.093925520778 -0.089046232402 -0.12345222384 -0.12381418794
          -0.12339752913 -0.15244846046 -0.15278485417 -0.15238264203 -0.12398358434 -0.15296001732
          -0.12380539626 -0.15279689431 -0.12454593182 -0.12471660227 -0.12421226501 -0.15351209044
          -0.15366667509 -0.15317204595 -0.12490082532 -0.15386457741 -0.12419240922 -0.15315830708
          -0.12440296263 -0.15337087214 -0.12425396591 -0.15321458876 -0.12483542413 -0.15380500257
          -0.12461218983 -0.1535693109 -0.12425124645 -0.15321725607 -0.12371598184 -0.15269239247
          -0.18260648847 -0.18294937909 -0.18254908919 -0.18312063813 -0.18294806778 -0.18367852271
          -0.18382544816 -0.18333537877 -0.18403294683 -0.18332332373 -0.18353800476 -0.18337181211
          -0.18398159742 -0.18374231458 -0.18337641656 -0.18285553157 -0.21383209527 -0.21417629719
          -0.2137812227 -0.21434371173 -0.21416564286 -0.21490420401 -0.21504402161 -0.21455924213
          -0.21525898576 -0.21454849839 -0.21476383507 -0.21459150314 -0.21521292627 -0.214969486
          -0.21459509432 -0.21408392489 -0.24599613249 -0.2463426441 -0.24595141411 -0.24650649726
          -0.24632307887 -0.24706977606 -0.24720294774 -0.24672284722 -0.24742539227 -0.24671328068
          -0.24692986906 -0.24675112963 -0.24738527834 -0.24713784456 -0.24675475061 -0.24625103176
          -0.2789850533 -0.27933350205 -0.27894610167 -0.27949407697 -0.27930554748 -0.28006008267
          -0.28018710017 -0.27971124649 -0.28041669726 -0.27970317006 -0.27992039919 -0.27973592281
          -0.28038170934 -0.28013083339 -0.27973932028 -0.27924245596 -0.31269142032 -0.313041538
          -0.31265762448 -0.31319901347 -0.31300577521 -0.31376764178 -0.31388896704 -0.31341680884
          -0.31412482262 -0.31341007352 -0.31362840533 -0.31343814731 -0.31409493089 -0.31384050846
          -0.31344139576 -0.31295129657 -0.34701505303 -0.34736698866 -0.34698653221 -0.34752157331
          -0.34732395411 -0.34809246659 -0.34820815921 -0.34774032235 -0.34845051169 -0.3477345109
          -0.34795361757 -0.34775814414 -0.34842509031 -0.34816733003 -0.34776124358 -0.34727737308
          -0.38186395168 -0.38221743703 -0.38184008002 -0.38236948848 -0.38216772676 -0.38294243813
          -0.38305303454 -0.38258847594 -0.38330075145 -0.38258373737 -0.3828035593 -0.38260352612
          -0.383279562 -0.38301900029 -0.38260617852 -0.38212835789 -0.41715329885 -0.41750767827
          -0.4171333015 -0.41765737534 -0.41745194793 -0.41823193431 -0.41833811998 -0.41787698865
          -0.41859054565 -0.41787314415 -0.41809341311 -0.41788926721 -0.41857331991 -0.418310076
          -0.41789183021 -0.41741913557 -0.45280572772 -0.4531609118 -0.45278918743 -0.45330828428
          -0.45309984684 -0.45388418436 -0.45398643613 -0.45352831483 -0.45424294472 -0.453525424
          -0.4537460804 -0.45353811979 -0.45422908664 -0.45396381617 -0.45354053378 -0.45307305455
          -0.48875227571 -0.48910811543 -0.48873916268 -0.48925364017 -0.4890421629 -0.48983046412
          -0.48992908001 -0.48947405815 -0.4901894629 -0.48947167397 -0.48969271779 -0.48948186636
          -0.49017846584 -0.48991143703 -0.48948380351 -0.48902097344 -0.52493214607 -0.52528905869
          -0.52492237091 -0.52543240786 -0.52521878481 -0.52600985765 -0.52610510588 -0.52565300465
          -0.52636879683 -0.52565097809 -0.52587246895 -0.52565896511 -0.52636039257 -0.52609175444
          -0.52566081285 -0.52520227432 -0.5612924099 -0.56164932251 -0.56128495932 -0.56179100275
          -0.56157559156 -0.5623691678 -0.56246131659 -0.56201171875 -0.56272739172 -0.56201058626
          -0.56223189831 -0.5620161891 -0.56272137165 -0.56245172024 -0.56201767921 -0.5615631938
          -0.59778529406 -0.59814274311 -0.59778022766 -0.59828317165 -0.5980656743 -0.59886151552
          -0.59895139933 -0.59850394726 -0.59921991825 -0.59850299358 -0.59872454405 -0.5985070467
          -0.59921592474 -0.59894514084 -0.59850847721 -0.59805721045 -0.63437187672 -0.63472980261
          -0.63436853886 -0.63486921787 -0.63465023041 -0.63544839621 -0.63553625345 -0.6350902915
          -0.63580667973 -0.63508963585 -0.63531136513 -0.63509219885 -0.63580429554 -0.63553225994
          -0.63509315252 -0.63464432955 -0.67101985216 -0.67137813568 -0.67101788521 -0.67151647806
          -0.67129653692 -0.67209649086 -0.67218285799 -0.67173790932 -0.67245519161 -0.67173755169
          -0.67195957899 -0.67173916101 -0.6724537015 -0.67218106985 -0.67173987627 -0.67129302025
          -0.70770299435 -0.70806181431 -0.70770198107 -0.70819950104 -0.70797836781 -0.70878016949
          -0.70886576176 -0.70842123032 -0.70913904905 -0.7084209919 -0.7086430192 -0.70842146873
          -0.7091383934 -0.7088650465 -0.70842218399 -0.70797675848 -0.74440228939 -0.7447617054
          -0.74440222979 -0.74489915371 -0.74467718601 -0.74548023939 -0.74556517601 -0.74512088299
          -0.74583923817 -0.74512076378 -0.74534291029 -0.74512118101 -0.74583905935 -0.74556511641
          -0.74512118101 -0.74467658997 -0.78110659122 -0.78146576881 -0.78110659122 -0.78160315752
          -0.78138118982 -0.78218436241 -0.78226935863 -0.78182518482 -0.78254365921 -0.78182512522
          -0.78204721212 -0.78182512522 -0.78254359961 -0.78226941824 -0.78182518482 -0.78138107061
          -0.086318232119 -0.091022215784 -0.08623611927 -0.092852517962 -0.089988142252 -0.10032664239
          -0.10152179748 -0.095724768937 -0.10496088117 -0.095701426268 -0.098547585309 -0.095759689808
          -0.1048764959 -0.10138885677 -0.095751181245 -0.089882053435 -0.087485164404 -0.089029230177
          -0.093900717795 -0.081115193665 -0.085063047707 -0.093841038644 -0.088966481388 -0.045166291296
          -0.045037116855 -0.044858004898 -0.044788584113 -0.044973205775 -0.044990263879 -0.044959682971
          -0.044964842498 -0.044980496168 -0.04515119642 -0.044885385782 -0.045041244477 -0.044824805111
          -0.027952983975 -0.027903761715 -0.027701411396 -0.027591381222 -0.027748785913 -0.027758574113
          -0.027722362429 -0.02773956582 -0.027753071859 -0.027950901538 -0.027726460248 -0.02791874297
          -0.027617910877 -0.01524275355 -0.015176883899 -0.014979242347 -0.014874297194 -0.015037498437
          -0.015043178573 -0.015011915937 -0.015031337738 -0.0150422398 -0.015242723748 -0.01499877777
          -0.015188343823 -0.014893872663 -0.0066157374531 -0.0065561048687 -0.0063669453375 -0.0062642702833
          -0.0064205364324 -0.0064214221202 -0.0063956165686 -0.0064150225371 -0.0064253592864 -0.0066192597151
          -0.0063825212419 -0.0065681054257 -0.0062775197439 -0.0017992135836 -0.0017307248199 -0.0014939026441
          -0.0013690080959 -0.0015523523325 -0.0015553312842 -0.0015204584925 -0.0015548664378 -0.0015576097649
          -0.0018071925733 -0.0015079185832 -0.0017443322577 -0.001378072775 -2.393806724e-12 3.138814729e-12
          5.7779746699e-13 -1.3168237117e-12 -1.4740185255e-13 1.7763575983e-12 5.1603781469e-14 -4.3495785587e-14
          7.999562113e-15 0 0 0 0
        </DataArray>
        <DataArray type="Float32" Name="uz" format="ascii" RangeMin="-0.069669663906" RangeMax="0.067960083485">
          -0.014167468995 -0.0079601267353 -0.014883276075 -0.0045684180222 0.0066529489122 0.0037176606711
          0.011535996571 -0.0070982198231 0.0014207945205 0.002612850396 0.004113425035 0.021771280095
          0.013704190031 0.01544563286 -0.02221737057 -0.015896661207 -0.0018918920541 -0.0030636887532
          -0.0020593563095 0.011351746507 0.014987668954 0.0046701091342 0.021719848737 -0.0051341210492
          -0.011820814572 -0.022187286988 -0.00021435569215 0.04945602268 0.049924965948 0.059752851725
          0.049056120217 0.049535550177 0.058913707733 0.037854783237 0.037957884371 0.03559442237
          0.035785462707 0.035446774215 0.044638734311 0.048437952995 0.035681735724 0.04446028918
          0.048113856465 0.030775886029 0.031231991947 0.040113445371 0.040138851851 0.028904497623
          0.029414243996 0.056770570576 0.056079100817 0.020479083061 0.021415369585 0.017685154453
          0.018712615594 0.023462109268 0.024180846289 0.06254144758 0.061611700803 0.049834407866
          0.050309572369 0.060519073159 0.037767957896 0.035432159901 0.035236656666 0.044772248715
          0.0487453565 0.03036852926 0.040102507919 0.028452578932 0.057392019778 0.019683528692
          0.016796639189 0.022813096642 0.063405662775 0.050169516355 0.050643201917 0.061204310507
          0.037686768919 0.035284876823 0.035048507154 0.044890940189 0.049012441188 0.03000642173
          0.040087908506 0.028048921376 0.057941380888 0.018973462284 0.016003884375 0.022235339507
          0.064171619713 0.050464384258 0.050937972963 0.061805736274 0.037615787238 0.035155445337
          0.03488169983 0.044994872063 0.049248233438 0.029685383663 0.040075179189 0.027692388743
          0.058425281197 0.018345437944 0.015303838067 0.021725734696 0.064845435321 0.050721302629
          0.051195062697 0.062331408262 0.037552524358 0.0350410752 0.034735042602 0.045085355639
          0.049453727901 0.029404632747 0.040063355118 0.027379900217 0.058847784996 0.017795929685
          0.014691128395 0.021279120818 0.065434552729 0.050942510366 0.051416587085 0.062785059214
          0.037496984005 0.034940890968 0.034607801586 0.045163504779 0.049630910158 0.029161537066
          0.040052015334 0.027108596638 0.059213407338 0.017320131883 0.014160376042 0.02089173533
          0.065943337977 0.051130298525 0.051605273038 0.063172347844 0.037448190153 0.034853514284
          0.034498590976 0.045230451971 0.04978229478 0.028953317553 0.040042046458 0.02687593922
          0.059525854886 0.016912452877 0.013705275021 0.020558839664 0.066378124058 0.051287524402
          0.051763724536 0.063498310745 0.037406023592 0.034778568894 0.034406319261 0.045286931098
          0.04990979284 0.028777763247 0.04003283754 0.026678247377 0.05978969112 0.016567917541
          0.013319963589 0.020276438445 0.066744968295 0.05141672492 0.051895011216 0.063768640161