<VTKFile type="UnstructuredGrid" version="1.0" byte_order="LittleEndian" header_type="UInt64">
  <UnstructuredGrid>
    <Piece NumberOfPoints="791" NumberOfCells="973">
      <PointData>
        <DataArray type="Float32" Name="ux" format="ascii" RangeMin="-0.82608526945" RangeMax="0.34507018328">
          0.19768992066 0.20971105993 0.20824617147 0.19620250165 0.19927673042 0.20936013758
          0.21031545103 0.2019033432 0.21365521848 0.20729790628 0.20115998387 0.21440854669
          0.20327802002 0.2075329572 0.19892625511 0.19628812373 0.20160388947 0.19705477357
          0.22112281621 0.2136285454 0.22024904191 0.22540324926 0.22393293679 0.20971955359
          0.20004224777 0.20833203197 0.19743987918 0.24390481412 0.24382665753 0.24330437183
          0.24034324288 0.24015888572 0.23981022835 0.2441546768 0.24039259553 0.24447198212
          0.24073080719 0.24418461323 0.24478510022 0.24416892231 0.24038723111 0.24107171595
          0.2404922545 0.24431140721 0.24050815403 0.24408972263 0.24032133818 0.24401648343
          0.24012871087 0.24436253309 0.24072337151 0.24371574819 0.23972432315 0.24371938407
          0.23969946802 0.24427239597 0.24034741521 0.24352350831 0.24003462493 0.24080938101
          0.24072349072 0.240206182 0.24105967581 0.24141524732 0.24104033411 0.2416614145
          0.24104726315 0.24113987386 0.24096164107 0.24085648358 0.24130058289 0.24046339095
          0.24051548541 0.2411737293 0.2404333204 0.22998353839 0.22989505529 0.22934430838
          0.23025858402 0.23062199354 0.23021396995 0.23081600666 0.23024643958 0.23031841218
          0.23015628755 0.23007123172 0.23045888543 0.22966386378 0.22977493703 0.23043811321
          0.22961489856 0.21098709106 0.21088705957 0.21033456922 0.21126440167 0.21166956425
          0.21119318902 0.21176940203 0.21121051908 0.21125845611 0.2111338228 0.21107134223
          0.21143852174 0.21064393222 0.2108091712 0.21145394444 0.21059823036 0.18355171382
          0.18344534934 0.18290729821 0.18383660913 0.1842251122 0.18373398483 0.18429012597
          0.1837592423 0.18376635015 0.18369039893 0.1836335808 0.18396194279 0.18319287896
          0.18337118626 0.18403191864 0.1831573993 0.14766690135 0.14758633077 0.14705653489
          0.14795945585 0.1483374089 0.14784513414 0.14834272861 0.14787194133 0.14788380265
          0.14781492949 0.14777259529 0.14805132151 0.14733047783 0.14754666388 0.14817114174
          0.14729864895 0.10359407961 0.10348965228 0.10300517082 0.10384968668 0.10419885069
          0.10374131054 0.1042060107 0.1037511304 0.10376258194 0.10372602195 0.10368675739
          0.10392515361 0.10327897966 0.10347481072 0.10406697541 0.10322036594 0.051674745977
          0.05158655718 0.051138032228 0.05191045627 0.052243422717 0.051825612783 0.052221622318
          0.051818884909 0.051837742329 0.051805276424 0.051759693772 0.051981832832 0.051387678832
          0.051614947617 0.052140180022 0.05133087188 -0.0075164684094 -0.0075796339661 -0.0079954443499
          -0.0072706863284 -0.0069704842754 -0.0073656379245 -0.0070291180164 -0.0073718037456 -0.0073970677331
          -0.0073880171403 -0.007417711895 -0.0072593111545 -0.0077527589165 -0.0075586205348 -0.0070515461266
          -0.007841351442 -0.073267497122 -0.073319554329 -0.073691293597 -0.073037691414 -0.072758473456
          -0.073132395744 -0.072865903378 -0.073132038116 -0.073161773384 -0.073156498373 -0.073163725436
          -0.0730458498 -0.073447138071 -0.073274679482 -0.072834432125 -0.073539555073 -0.1447699815
          -0.14485280216 -0.14514954388 -0.14459013939 -0.14434693754 -0.14466798306 -0.144449085
          -0.14469093084 -0.14468663931 -0.14469011128 -0.14467896521 -0.14460644126 -0.14492785931
          -0.14476653934 -0.14440634847 -0.14504523575 -0.22121605277 -0.2212716639 -0.22157509625
          -0.22104865313 -0.22087244689 -0.22115018964 -0.22099162638 -0.2211921066 -0.22117239237
          -0.22115398943 -0.22113776207 -0.22112464905 -0.22135227919 -0.22119556367 -0.22087787092
          -0.22145342827 -0.30173188448 -0.30179536343 -0.3020093143 -0.30158963799 -0.30143597722
          -0.30169650912 -0.30158770084 -0.30169793963 -0.30168253183 -0.30168536305 -0.3016487956
          -0.30166918039 -0.30179932714 -0.30169484019 -0.30144935846 -0.30194303393 -0.38541704416
          -0.38547387719 -0.38567394018 -0.38532581925 -0.38520258665 -0.38540369272 -0.38534721732
          -0.38544377685 -0.38541701436 -0.38540309668 -0.38533174992 -0.38541606069 -0.38547456264
          -0.38537338376 -0.38519838452 -0.38560840487 -0.47147771716 -0.47154349089 -0.47164812684
          -0.47140297294 -0.47131228447 -0.47144895792 -0.47145491838 -0.47149807215 -0.47148188949
          -0.4714628756 -0.47144410014 -0.47155529261 -0.47150745988 -0.47138687968 -0.47126927972
          -0.47165638208 -0.55912864208 -0.55916029215 -0.55927431583 -0.55906546116 -0.55897271633
          -0.55913609266 -0.55917292833 -0.55917721987 -0.55914413929 -0.55911713839 -0.55907094479
          -0.55921632051 -0.55911058187 -0.55905348063 -0.55895102024 -0.55930513144 -0.64771515131
          -0.64777493477 -0.64783650637 -0.64767879248 -0.64760696888 -0.64773726463 -0.64781230688
          -0.64779150486 -0.64775252342 -0.64773762226 -0.64766305685 -0.64783060551 -0.64771729708
          -0.64761614799 -0.64758294821 -0.64788913727 -0.73674583435 -0.73679196835 -0.73683470488
          -0.73672187328 -0.73664736748 -0.7367914319 -0.73687243462 -0.73684191704 -0.73679536581
          -0.73675757647 -0.73671686649 -0.73691016436 -0.73672688007 -0.73665428162 -0.73660236597
          -0.73689293861 -0.82590228319 -0.82596457005 -0.8259807229 -0.8258600235 -0.82579392195
          -0.82594436407 -0.82603210211 -0.82599246502 -0.82594531775 -0.82591766119 -0.82587569952
          -0.82608526945 -0.82587760687 -0.82581996918 -0.82577604055 -0.82604956627 0.22413931787
          0.22743046284 0.22589498758 0.22672738135 0.22446461022 0.23206396401 0.23476183414
          0.23077757657 0.23472601175 0.22925874591 0.22947046161 0.23242557049 0.23261526227
          0.22951719165 0.2265303582 0.22884874046 0.22458647192 0.23079842329 0.23206821084
          0.21659594774 0.21803702414 0.22778888047 0.21933946013 0.27007722855 0.27538380027
          0.27720206976 0.29754626751 0.3031463027 0.30476292968 0.26906305552 0.29682072997
          0.26457104087 0.29218164086 0.27507871389 0.2823523283 0.27922073007 0.30294525623
          0.31030756235 0.30711945891 0.27643913031 0.3043000102 0.27353787422 0.30140560865
          0.26897397637 0.29685851932 0.28500184417 0.31296902895 0.26967847347 0.29754635692
          0.26449760795 0.29243612289 0.26252785325 0.29038700461 0.28302764893 0.31083092093
          0.31722548604 0.3228161931 0.32450032234 0.31651288271 0.31186804175 0.322599262
          0.32994776964 0.32678771019 0.32393607497 0.32106041908 0.31656512618 0.33269396424
          0.31724005938 0.31216791272 0.31011241674 0.33056974411 0.32801240683 0.33365917206
          0.33531072736 0.32732647657 0.32265245914 0.33346182108 0.34077095985 0.33763387799
          0.33472448587 0.33189982176 0.32740944624 0.34352895617 0.32808291912 0.32301989198
          0.32094144821 0.34143158793 0.32955142856 0.33520251513 0.33686065674 0.32888650894
          0.32419127226 0.33499515057 0.34230583906 0.33918988705 0.33626961708 0.33346810937
          0.32895073295 0.34507018328 0.32966718078 0.32462924719 0.32253086567 0.34299200773
          0.32168519497 0.32736453414 0.3290014863 0.32103383541 0.31635355949 0.32716858387
          0.33444771171 0.33135047555 0.32842609286 0.32562106848 0.32112640142 0.33721959591
          0.32183280587 0.31678438187 0.31467792392 0.33513578773 0.30455330014 0.31019774079
          0.31186193228 0.30387449265 0.29917395115 0.30999648571 0.31728601456 0.31419327855
          0.31128653884 0.30846527219 0.30398103595 0.32004842162 0.30468305945 0.29964509606
          0.29752025008 0.31795731187 0.27840563655 0.28402718902 0.28568375111 0.27769482136
          0.27302137017 0.28382459283 0.29110556841 0.28800186515 0.28515467048 0.28227421641
          0.27780756354 0.29384511709 0.27852925658 0.27347463369 0.2713522613 0.29178711772
          0.24370120466 0.2493185699 0.25098478794 0.24299988151 0.23832580447 0.24914883077
          0.25643414259 0.25327849388 0.25049614906 0.24755464494 0.24308016896 0.25911492109
          0.24386590719 0.23872686923 0.23659349978 0.25704017282 0.20115584135 0.20672853291
          0.2084081918 0.20040363073 0.19575369358 0.20657227933 0.2138555795 0.21068777144
          0.20795232058 0.20497614145 0.20049548149 0.2165004164 0.20131866634 0.19613778591
          0.19399221241 0.21442192793 0.15154190361 0.15705354512 0.15873068571 0.15073810518
          0.14607799053 0.15690298378 0.16420149803 0.16099774837 0.15833048522 0.15531273186
          0.15080827475 0.16678228974 0.15164890885 0.14641202986 0.14428250492 0.16471107304
          0.095691017807 0.10116630793 0.10286593437 0.09485834837 0.090195804834 0.10103980452
          0.10837393254 0.10509829968 0.10252414644 0.099428616464 0.094927094877 0.11087385565
          0.095780216157 0.090526133776 0.088367059827 0.10880388319 0.034606382251 0.040055684745
          0.041766714305 0.033754076809 0.029104510322 0.039952926338 0.047244329005 0.043969031423
          0.041446648538 0.038286358118 0.033763252199 0.049693018198 0.034687224776 0.029355498031
          0.027176270261 0.047622159123 -0.030751537532 -0.025358447805 -0.023661997169 -0.031676411629
          -0.036278158426 -0.025461163372 -0.018149962649 -0.021467614919 -0.023901525885 -0.027114553377
          -0.031625568867 -0.015739979222 -0.030704187229 -0.036093689501 -0.038236699998 -0.017831053585
          -0.099419996142 -0.094105809927 -0.092404834926 -0.10038380325 -0.10499117523 -0.094174109399
          -0.086854085326 -0.090220063925 -0.092569462955 -0.095853798091 -0.10036875308 -0.084532573819
          -0.099416039884 -0.1048611328 -0.10699964315 -0.086633205414 -0.17056952417 -0.16529399157
          -0.16356523335 -0.17157465219 -0.17613376677 -0.16532871127 -0.15802833438 -0.16140523553
          -0.16371193528 -0.16701468825 -0.17155922949 -0.15573342144 -0.17055423558 -0.17603668571
          -0.17817480862 -0.15786516666 -0.24335710704 -0.23812767863 -0.23639583588 -0.24438793957
          -0.24892270565 -0.23814605176 -0.23084123433 -0.23424763978 -0.23649641871 -0.23985233903
          -0.24439077079 -0.22863383591 -0.24336475134 -0.24888370931 -0.25101453066 -0.23074281216
          -0.31714498997 -0.31193560362 -0.31023240089 -0.31817990541 -0.32272672653 -0.31197118759
          -0.3046605587 -0.30808854103 -0.31027656794 -0.31367954612 -0.31818315387 -0.30247318745
          -0.31716564298 -0.32270976901 -0.32483163476 -0.30460435152 -0.39140540361 -0.38623568416
          -0.38452476263 -0.3924895823 -0.39696639776 -0.38625434041 -0.37893167138 -0.38237079978
          -0.38452404737 -0.38795354962 -0.39246827364 -0.37680858374 -0.39142972231 -0.39697608352
          -0.39910182357 -0.37891244888 -0.46581465006 -0.46063306928 -0.45891940594 -0.46687829494
          -0.47137194872 -0.46063622832 -0.45333820581 -0.45679211617 -0.45892930031 -0.46236014366
          -0.46688741446 -0.45120611787 -0.46580570936 -0.47137024999 -0.47351202369 -0.45333990455
          0.22284136713 0.23349159956 0.22919534147 0.22999700904 0.2221672833 0.24501590431
          0.25308138132 0.24282950163 0.25233578682 0.23768949509 0.23716911674 0.24795509875
          0.24606077373 0.23660311103 0.22747634351 0.23880791664 0.22645696998 0.23434399068
          0.23656006157 0.21684776247 0.21856956184 0.23115299642 0.22046363354 0.15879905224
          0.16032320261 0.15967828035 0.15725263953 0.15715712309 0.15590071678 0.1552720964
          0.15420566499 0.15348264575 0.15179307759 0.1513979882 0.15088196099 0.15314924717
          0.11226262897 0.11301182956 0.11249645799 0.11103756726 0.11089210212 0.11045338959
          0.10952203721 0.10894680023 0.10813498497 0.10692350566 0.10624884069 0.10581893474
          0.10810487717 0.068698465824 0.069058872759 0.06858830899 0.067943669856 0.067574411631
          0.067517451942 0.066615782678 0.066675059497 0.065609432757 0.065070077777 0.064036138356
          0.064003035426 0.065646767616 0.033135890961 0.033079806715 0.032723911107 0.032788991928
          0.032262127846 0.032527796924 0.031681492925 0.032256107777 0.031022273004 0.030987974256
          0.029668301344 0.029899090528 0.03107630834 0.0096035990864 0.0089859813452 0.0085637271404
          0.0096198702231 0.0087243588641 0.0096531733871 0.0084811756387 0.010000598617 0.0081271091476
          0.0088673625141 0.0068137301132 0.0074835922569 0.0083464495838 -1.061489438e-11 1.3271962696e-10
          -5.7747813476e-11 -3.6452373238e-12 -1.4122488986e-12 1.0132855492e-11 -1.7078543441e-12 -1.3988643414e-13
          -1.5283706646e-14 0 0 0 6.7075353247e-14
        </DataArray>
        <DataArray type="Float32" Name="uy" format="ascii" RangeMin="-1.63826406" RangeMax="0.39356246591">
          0.21377807856 0.22258773446 0.22578179836 0.20601853728 0.20262098312 0.21536701918
          0.21163742244 0.2135732919 0.22053977847 0.21256810427 0.20548079908 0.20873616636
          0.20208896697 0.20533251762 0.2208031714 0.21333052218 0.2099711597 0.20634371042
          0.23078100383 0.21407568455 0.22024507821 0.23078851402 0.22005975246 0.22039069235
          0.2150503695 0.23058404028 0.20448344946 0.21929161251 0.21883878112 0.21887233853
          0.22862689197 0.22803226113 0.22831869125 0.21888466179 0.22805690765 0.21896661818
          0.22822588682 0.21899989247 0.2188089788 0.21860545874 0.22817441821 0.22787676752
          0.22775949538 0.21944138408 0.22854398191 0.21884605289 0.22798921168 0.21880765259
          0.2279420346 0.21806931496 0.22723890841 0.21918359399 0.22833611071 0.21852727234
          0.22767773271 0.21842646599 0.22761656344 0.21812735498 0.22752359509 0.19755291939
          0.19699476659 0.19709452987 0.19706451893 0.1971604526 0.19711732864 0.19691070914
          0.19672457874 0.19751270115 0.19697289169 0.19689826667 0.19618205726 0.19723019004
          0.1965829134 0.19653375447 0.19625616074 0.16271719337 0.16216662526 0.16225403547
          0.16221621633 0.1623467356 0.16226705909 0.16207806766 0.16189190745 0.16269114614
          0.16213339567 0.16203704476 0.16134299338 0.16234360635 0.16169919074 0.16167247295
          0.16143573821 0.11490744352 0.11430432647 0.11443652958 0.11438241601 0.11452899128
          0.11442672461 0.11424034089 0.11404574662 0.11479082704 0.11429989338 0.11416712403
          0.11351584643 0.1144464761 0.11380441487 0.11381883174 0.1136186868 0.054312046617
          0.053730603307 0.053831793368 0.053782593459 0.053924497217 0.053808536381 0.053648978472
          0.053456705064 0.054168183357 0.053659100085 0.053555712104 0.052967522293 0.053816977888
          0.053182803094 0.053250465542 0.053041219711 -0.018562955782 -0.019138179719 -0.019041836262
          -0.019090311602 -0.018931603059 -0.019085884094 -0.019228920341 -0.01941569522 -0.018739072606
          -0.019189214334 -0.019299931824 -0.019865617156 -0.019064510241 -0.019678305835 -0.019608201459
          -0.01979373768 -0.10303275287 -0.10359001905 -0.10347756743 -0.1035155803 -0.10335480422
          -0.10356157273 -0.10365811735 -0.10380027443 -0.10324179381 -0.10363159329 -0.10374318808
          -0.10425196588 -0.10355991125 -0.10410759598 -0.10401951522 -0.10417053103 -0.19822013378
          -0.19870427251 -0.19859729707 -0.19867743552 -0.19850885868 -0.19868987799 -0.19881284237
          -0.19894903898 -0.19842387736 -0.19877493382 -0.19888357818 -0.19934272766 -0.19874165952
          -0.19921730459 -0.19911909103 -0.19927991927 -0.30306994915 -0.30355671048 -0.30345693231
          -0.3034979403 -0.30334958434 -0.30354726315 -0.30364352465 -0.30376306176 -0.30331736803
          -0.3035966754 -0.30369654298 -0.30411779881 -0.30358043313 -0.30401065946 -0.3039137423
          -0.3040446043 -0.41653999686 -0.41695863008 -0.41686171293 -0.41692960262 -0.41679573059
          -0.41699543595 -0.41706007719 -0.41715958714 -0.41679289937 -0.41701987386 -0.41711738706
          -0.41745260358 -0.41704043746 -0.41738727689 -0.41727533937 -0.41741815209 -0.53742384911
          -0.53778642416 -0.53772073984 -0.5377677083 -0.53762120008 -0.53781616688 -0.53788417578
          -0.53797197342 -0.53768920898 -0.53785079718 -0.53792047501 -0.53823935986 -0.53789240122
          -0.53815704584 -0.53806012869 -0.53815203905 -0.66451883316 -0.66482591629 -0.6647554636
          -0.66480910778 -0.66468465328 -0.66486847401 -0.66493278742 -0.66497319937 -0.66474223137
          -0.66487073898 -0.664947927 -0.66518956423 -0.66491752863 -0.66513931751 -0.66503703594
          -0.66512936354 -0.79659259319 -0.796836555 -0.79678851366 -0.79682999849 -0.79672253132
          -0.79690665007 -0.79696500301 -0.79697394371 -0.79683023691 -0.79691791534 -0.79696023464
          -0.79715770483 -0.79695791006 -0.79712098837 -0.79702323675 -0.79707455635 -0.93250590563
          -0.93272221088 -0.93264716864 -0.93270683289 -0.93263924122 -0.93278849125 -0.9328328371
          -0.9328238368 -0.93276834488 -0.93275940418 -0.93283009529 -0.93296319246 -0.93285882473
          -0.93295681477 -0.93287831545 -0.93289119005 -1.0712065697 -1.0713697672 -1.0713064671
          -1.0713735819 -1.0713062286 -1.0714812279 -1.0715255737 -1.0714842081 -1.0714710951
          -1.0714473724 -1.0714908838 -1.0715727806 -1.0715386868 -1.0715863705 -1.0714805126
          -1.071493268 -1.2117910385 -1.2119101286 -1.211848855 -1.2119222879 -1.211840868
          -1.2120366096 -1.2120554447 -1.2120053768 -1.2120624781 -1.2119842768 -1.212018609
          -1.212059021 -1.2120757103 -1.2120885849 -1.2120031118 -1.2119771242 -1.3534576893
          -1.3535724878 -1.3535113335 -1.3535801172 -1.3535212278 -1.3536970615 -1.3537167311
          -1.3536362648 -1.3537449837 -1.3536235094 -1.3536704779 -1.3536787033 -1.353749752
          -1.3537285328 -1.3536279202 -1.3535910845 -1.4956662655 -1.4957370758 -1.4956752062
          -1.4957617521 -1.4957131147 -1.4958623648 -1.4958902597 -1.4958026409 -1.4959375858
          -1.4958159924 -1.495859623 -1.4958297014 -1.4959251881 -1.4958897829 -1.4958088398
          -1.495729208 -1.6379722357 -1.6380721331 -1.6379948854 -1.6380919218 -1.6380245686
          -1.6381989717 -1.6382130384 -1.6381195784 -1.63826406 -1.6381140947 -1.6381669044
          -1.6381239891 -1.638261199 -1.6381938457 -1.6381242275 -1.6380491257 0.22061495483
          0.22219927609 0.22006066144 0.22328425944 0.22218449414 0.2275904566 0.2280561924
          0.22456242144 0.23059140146 0.22476299107 0.22632950544 0.22417145967 0.23023886979
          0.227632761 0.22457268834 0.22112771869 0.22847943008 0.23078088462 0.23659646511
          0.22037279606 0.22532302141 0.23598088324 0.22990599275 0.31619828939 0.31083321571
          0.31639164686 0.34275689721 0.33750984073 0.34308698773 0.3087233305 0.33534520864
          0.31193122268 0.33839306235 0.30002745986 0.29835125804 0.30526158214 0.32669338584
          0.32492893934 0.3319568038 0.2945958674 0.32123589516 0.30540600419 0.33208987117
          0.30225220323 0.32890987396 0.30508509278 0.33172479272 0.29501017928 0.3217304945
          0.29911479354 0.32583504915 0.30545297265 0.33201676607 0.31211957335 0.33882161975
          0.36467772722 0.35943704844 0.36503866315 0.35721746087 0.36023959517 0.34857937694
          0.34677329659 0.35381421447 0.34314864874 0.35396489501 0.35077619553 0.35354024172
          0.34365275502 0.34769654274 0.35382395983 0.36073246598 0.38079252839 0.37553918362
          0.38117718697 0.37332600355 0.37630546093 0.3646710813 0.3628436327 0.36993658543
          0.35927569866 0.37009081244 0.3668769896 0.36963483691 0.359801054 0.36382374167
          0.36988946795 0.3768415451 0.39044338465 0.38516190648 0.39083656669 0.38293859363
          0.38590469956 0.37433326244 0.37248653173 0.37957078218 0.36891445518 0.37970858812
          0.37651783228 0.37925574183 0.36943086982 0.37341570854 0.37950021029 0.38648658991
          0.39316055179 0.38791561127 0.39356246591 0.38566946983 0.38865295053 0.37705823779
          0.37522310019 0.38232558966 0.37168353796 0.38245803118 0.37924256921 0.38200193644
          0.37220093608 0.37617740035 0.3822376132 0.38922032714 0.3888643384 0.38358572125
          0.38922554255 0.38134437799 0.38434016705 0.37275537848 0.37096503377 0.3779899776
          0.36735740304 0.3781426549 0.37491929531 0.37768182158 0.36786353588 0.37182503939
          0.37789717317 0.38490211964 0.37749099731 0.37225928903 0.37787935138 0.37001153827
          0.37302234769 0.36142793298 0.35963311791 0.36664956808 0.3560474813 0.36680185795
          0.36359524727 0.36638244987 0.35650408268 0.36047422886 0.36657327414 0.37354290485
          0.35937032104 0.35412156582 0.35974612832 0.35190466046 0.3549156189 0.3433187902
          0.34154188633 0.34856525064 0.33792105317 0.34867703915 0.34545528889 0.34828808904
          0.33838260174 0.34234032035 0.34845259786 0.35539728403 0.33490034938 0.32962039113
          0.33521017432 0.32741293311 0.33045846224 0.31882426143 0.31710144877 0.32405224442
          0.31344625354 0.32418590784 0.32094824314 0.3238145411 0.31385007501 0.31782716513
          0.3239928782 0.33089834452 0.30454772711 0.29925355315 0.30480474234 0.29706612229
          0.30016329885 0.28846231103 0.28682520986 0.29373109341 0.28308200836 0.29381337762
          0.2905819118 0.29348933697 0.28343880177 0.28742662072 0.29365730286 0.30053442717
          0.2689678371 0.26366606355 0.26919290423 0.26150164008 0.26462519169 0.25290256739
          0.25129976869 0.25814840198 0.24751849473 0.25825932622 0.25500795245 0.25796923041
          0.24782928824 0.25181922317 0.25809425116 0.26494646072 0.22888214886 0.22356323898
          0.22908309102 0.22142876685 0.224577263 0.21281068027 0.21125008166 0.21808168292
          0.2074457705 0.21816328168 0.21491780877 0.2179107517 0.20769774914 0.21169511974
          0.2180313617 0.22484698892 0.18502642214 0.17968712747 0.18516895175 0.17758908868
          0.18078790605 0.1689657867 0.16749016941 0.17424649 0.16359505057 0.17431786656
          0.17105847597 0.17412792146 0.16380147636 0.16782456636 0.17422515154 0.18097774684
          0.13819783926 0.13286177814 0.13829159737 0.13077399135 0.13396792114 0.1221402362
          0.12071662396 0.12743093073 0.11678925902 0.12748816609 0.12422902882 0.1273676455
          0.11695669591 0.12098948658 0.12742573023 0.13412082195 0.08913385123 0.083817861974
          0.089190781116 0.081743367016 0.084969207644 0.073147274554 0.07174115628 0.078433819115
          0.067786060274 0.078463189304 0.075192801654 0.078368656337 0.067881941795 0.071930930018
          0.078424081206 0.085060894489 0.038615126163 0.033296603709 0.038659583777 0.031252548099
          0.034501060843 0.022648403421 0.021322244778 0.027939174324 0.017315540463 0.027963863686
          0.024689709768 0.027914565057 0.017390245572 0.021439157426 0.027951700613 0.03453900665
          -0.012766941451 -0.018065400422 -0.012746474706 -0.020105980337 -0.016837896779 -0.028702422976
          -0.029996996745 -0.023392237723 -0.034004699439 -0.023390626535 -0.026666838676 -0.023435620591
          -0.033988617361 -0.02994537726 -0.023389093578 -0.016830289736 -0.064523763955 -0.069816373289
          -0.06451382488 -0.071846589446 -0.068563111126 -0.080432340503 -0.081696346402 -0.075130857527
          -0.085755437613 -0.075140468776 -0.078415095806 -0.075143292546 -0.085732132196 -0.081685163081
          -0.075122751296 -0.068580903113 -0.11636350304 -0.12167227268 -0.11636117846 -0.12370849401
          -0.12041582167 -0.13228555024 -0.13353314996 -0.12696504593 -0.13758775592 -0.12695108354
          -0.13025052845 -0.12698495388 -0.13757666945 -0.13352920115 -0.12697719038 -0.1204059571
          0.26381227374 0.26504310966 0.26377624273 0.26559531689 0.2648178041 0.26784840226
          0.26800808311 0.26633137465 0.26926767826 0.26643273234 0.26739138365 0.26628226042
          0.26941776276 0.26835402846 0.26654595137 0.26467975974 0.23852992058 0.24073003232
          0.24635446072 0.2306972295 0.23539043963 0.2459975183 0.24007496238 0.15725462139
          0.16016091406 0.16320978105 0.1651481837 0.16043442488 0.15580272675 0.16057892144
          0.16523607075 0.16074623168 0.16356790066 0.15820594132 0.16101120412 0.1562076509
          0.11066646129 0.11263018101 0.11466508359 0.11612034589 0.11279847473 0.10942617059
          0.11292310059 0.11649043858 0.11310818791 0.11550388485 0.11111671478 0.11342658848
          0.10954200476 0.067212842405 0.068541668355 0.069669030607 0.07057902962 0.068444862962
          0.066059283912 0.06854262203 0.071134909987 0.06874666363 0.070840343833 0.067331574857
          0.069304831326 0.065973460674 0.031994942576 0.032676458359 0.033092636615 0.033533621579
          0.032458908856 0.030960347503 0.03253192082 0.034221492708 0.032764848322 0.034485638142
          0.031828794628 0.033431421965 0.030714357272 0.0093107353896 0.0093550616875 0.0087894499302
          0.0086797615513 0.0087623829022 0.008075623773 0.0087716747075 0.0098157757893 0.0091021852568
          0.010895671323 0.0085835354403 0.010223504156 0.0075124185532 5.6100319702e-12 -2.4177852428e-11
          6.7840438128e-12 1.9416874792e-12 -2.159647244e-12 -4.7113970711e-12 8.8196539915e-14 2.9139950002e-13
          -8.1627236979e-14 0 0 0 -3.260507302e-14
        </DataArray>
        <DataArray type="Float32" Name="uz" format="ascii" RangeMin="-0.099730975926" RangeMax="0.13180488348">
          0.035794734955 0.025885138661 0.036063417792 0.020753841847 0.0036980747245 0.0082021541893
          -0.0026220690925 0.024676138535 0.011835487559 0.0096110031009 0.00708475383 -0.01547730621
          -0.0069612334482 -0.009802072309 0.046684138477 0.038474950939 0.015513494611 0.018149834126
          0.017085988075 -0.0030752241146 -0.0059658377431 0.0072049754672 -0.014798645861 0.019246667624
          0.031506918371 0.045899327844 0.013874006458 -0.017694175243 -0.013583983295 -0.01231953688
          -0.019964192063 -0.017239158973 -0.018649248406 -0.018430298194 -0.017819700763 -0.022044470534
          -0.019632654265 -0.013442441821 -0.007660899777 -0.010504296049 -0.013873303309 -0.012459410354
          -0.014928132296 -0.011995723471 -0.011833007447 -0.014851667918 -0.015876924619 -0.018371354789
          -0.015542060137 -0.0061004199088 -0.01412404608 -0.017425147817 -0.012645397335 -0.021862355992
          -0.014953908511 -0.023616045713 -0.017799859866 -0.0078481603414 -0.016366483644 -0.015036836267
          -0.0094928806648 -0.0051874751225 -0.01912794821 -0.024452676997 -0.013260958716 -0.0032508200966
          -0.0058482741006 -0.012651989236 -0.013837284409 -0.021452648565 0.0020966087468 -0.022509394214
          -0.02905747667 -0.029799481854 0.0013841692125 -0.012100584805 -0.0052986065857 0.0022773281671
          -0.019817298278 -0.026770928875 -0.0132891424 0.00098808913026 -0.0012681536609 -0.013694286346
          -0.012880022638 -0.024787835777 0.010363516398 -0.028071664274 -0.036627773196 -0.036151260138
          0.010847910307 -0.0089807901531 -0.0010714593809 0.009850599803 -0.0204996299 -0.028989519924
          -0.013509210199 0.0049786344171 0.0032317768782 -0.015003612265 -0.01200172957 -0.028187396005
          0.018498731777 -0.033847428858 -0.044358562678 -0.042496863753 0.020337890834 -0.0058151823469
          0.0030851243064 0.017374860123 -0.021096933633 -0.031074695289 -0.013817939907 0.0087262745947
          0.007598111406 -0.016489505768 -0.011153748259 -0.031569741666 0.026373092085 -0.039704710245
          -0.051982268691 -0.048686694354 0.029645944014 -0.0026985576842 0.0071137952618 0.024685034528
          -0.021658694372 -0.032941959798 -0.014246701263 0.012194967829 0.01172237657 -0.018104443327
          -0.01036103256 -0.034866631031 0.033836055547 -0.045455299318 -0.059407122433 -0.054613411427
          0.038604807109 0.00039878315874 0.010960165411 0.031604424119 -0.022126492113 -0.034628327936
          -0.014699481428 0.015314584598 0.015563154593 -0.019743584096 -0.0096693346277 -0.038019124418
          0.040825847536 -0.050954736769 -0.066376417875 -0.060149081051 0.047059644014 0.0033246991225
          0.014526648447 0.038082096726 -0.022546816617 -0.036107651889 -0.015161184594 0.018133996055
          0.019086303189 -0.021324468777 -0.0090082325041 -0.040909681469 0.047231648117 -0.05608817935
          -0.072863616049 -0.065204441547 0.054842527956 0.0060547622852 0.01777488552 0.04398104921
          -0.022886971012 -0.037406995893 -0.015605082735 0.020600922406 0.022272212431 -0.022845489904
          -0.0083952210844 -0.043532464653 0.05296402052 -0.060744028538 -0.078693196177 -0.069762043655
          0.061886329204 0.0085290344432 0.020667595789 0.04922670126 -0.023137107491 -0.038440778852
          -0.016020979732 0.022735010833 0.02507417649 -0.024184590206 -0.0078466041014 -0.045802533627
          0.05801467225 -0.064915463328 -0.083810843527 -0.073694430292 0.068122565746 0.010694421828
          0.023170689121 0.053748998791 -0.023305198178 -0.039290942252 -0.016365481541 0.02455717884
          0.027472464368 -0.025408219546 -0.0073345135897 -0.047731395811 0.062317498028 -0.068455383182
          -0.088173478842 -0.077024534345 0.073488503695 0.012563102879 0.025299878791 0.057565633208
          -0.023420542479 -0.039906542748 -0.016629196703 0.026053946465 0.029475118965 -0.026385845616