<VTKFile type="UnstructuredGrid" version="1.0" byte_order="LittleEndian" header_type="UInt64">
  <UnstructuredGrid>
    <Piece NumberOfPoints="791" NumberOfCells="973">
      <PointData>
        <DataArray type="Float32" Name="ux" format="ascii" RangeMin="-0.010374518111" RangeMax="0.010809729807">
          -0.00018919260765 -0.00041533622425 0.0001700642315 -0.00028827411006 -0.00037827432971 -0.00072638550773
          -0.00011404108227 -0.00034348882036 -0.0010926837567 -0.000428654399 -0.00026175996754 0.00060479313834
          -0.0001874146692 -6.9140885898e-05 0.00059203925775 -6.3900639361e-05 -0.0011816000333 -0.00053131498862
          -0.00085710454732 -0.00024647641112 0.00035748124355 -0.0015135507565 0.0010421932675 -0.0015376468655
          -0.00029873906169 0.00096054939786 -0.00027522724122 -0.0030556798447 0.0016729220515 0.0033628717065
          -0.0031438707374 0.0014395677717 0.003065883182 -0.0037437749561 -0.0038372410927 -0.0079066250473
          -0.0078673390672 0.0014749926049 0.0070303203538 0.0047643594444 0.0012665095273 0.0067587648518
          0.0044736554846 0.0026296237484 0.0024105119519 0.00014883320546 -4.24082682e-05 -0.0034251569305
          -0.0035579325631 0.0093698836863 0.0090207802132 -0.0023416932672 -0.0025109676644 -0.0067171100527
          -0.0068283840083 -0.009075615555 -0.0090915113688 0.0081894425675 0.0077623124234 -0.0029623743612
          0.0018647984834 0.0036099273711 -0.0036034283694 -0.0078554050997 0.0016288611805 0.0070933387615
          0.0049340198748 0.0027338515501 0.00032136461232 -0.003217123216 0.0095478137955 -0.0021019573323
          -0.0064309388399 -0.0089027024806 0.008477030322 -0.002899596002 0.0020140879788 0.0038018159103
          -0.0035208421759 -0.0078536169603 0.0017520580441 0.007193538826 0.0050919437781 0.0028291242197
          0.00044901380897 -0.0030928410124 0.009736597538 -0.0019448102685 -0.0062718139961 -0.0088348640129
          0.0087298024446 -0.0028847367503 0.0020989344921 0.003920041956 -0.0034905378707 -0.0078867711127
          0.0018199577462 0.007251068484 0.0051877880469 0.0028806107584 0.00051728711696 -0.0030318936333
          0.0098593654111 -0.0018597932067 -0.0061911446974 -0.0088208839297 0.0088957836851 -0.0029398824554
          0.0020968397148 0.0039414232597 -0.0035412043799 -0.0079846912995 0.0018085680204 0.0072584934533
          0.0052039255388 0.0028651575558 0.00050051312428 -0.0030658228789 0.0099087618291 -0.001878387644
          -0.0062291738577 -0.00890038535 0.0089621469378 -0.0030496241525 0.0020151876379 0.0038711740635
          -0.0036562900059 -0.0081252167001 0.0017225568881 0.0072028920986 0.0051379138604 0.0027850307524
          0.00040800325223 -0.0031793958042 0.0098683405668 -0.0019854141865 -0.0063612661324 -0.0090474626049
          0.0089171444997 -0.0032140000258 0.0018519182922 0.0037069651298 -0.0038333768025 -0.0083044366911
          0.0015629814006 0.0070845065638 0.0049894778058 0.0026405658573 0.0002407196298 -0.0033679623157
          0.0097401700914 -0.0021765627898 -0.0065798824653 -0.0092553021386 0.0087646115571 -0.0034191973973
          0.0016422313638 0.003489718074 -0.0040586479008 -0.0085239047185 0.0013663971331 0.0069565721788
          0.0048055183142 0.0024720658548 2.8666598155e-05 -0.0036142743193 0.0095827775076 -0.0024288350251
          -0.0068780658767 -0.0095256948844 0.0085593275726 -0.0036175632849 0.0014261531178 0.0032552261837
          -0.004281304311 -0.0087275654078 0.0011735013686 0.006846874021 0.0046197022311 0.0023154113442
          -0.00018520264712 -0.0038668022025 0.0094244545326 -0.0026922011748 -0.0071962135844 -0.0097983498126
          0.008332897909 -0.0037697572261 0.0012343466515 0.0030362138059 -0.004461904522 -0.0088705979288
          0.0010064616799 0.0067654573359 0.004453482572 0.0021885556635 -0.00037170387805 -0.0040879291482
          0.0092773605138 -0.0029337760061 -0.007486876566 -0.010022566654 0.0081056226045 -0.0038865816314
          0.0010683954461 0.0028369836509 -0.0046121729538 -0.0089734625071 0.00087043707026 0.0067256642506
          0.0043156365864 0.0020988618489 -0.0005290529225 -0.0042856130749 0.0091580981389 -0.0031557579059
          -0.0077665569261 -0.010222141631 0.0078944833949 -0.0039356006309 0.00095661880914 0.0026875601616
          -0.0046984944493 -0.0090001132339 0.00079066975741 0.0067451181822 0.004230084829 0.0020694702398
          -0.00062890414847 -0.0044239088893 0.0090891476721 -0.0033225337975 -0.0079876650125 -0.010353353806
          0.0077245971188 -0.0038802062627 0.00094468716998 0.0026348240208 -0.0046794521622 -0.0089172460139
          0.00080985948443 0.0068570389412 0.0042407647707 0.0021349573508 -0.00062866992084 -0.0044594462961
          0.0091087492183 -0.0033899093978 -0.0081042172387 -0.010374518111 0.0076453764923 -0.0037276467774
          0.0010294151725 0.0026772071142 -0.0045598298311 -0.0087315896526 0.00092786934692 0.0070639611222
          0.0043472493999 0.0023003639653 -0.00052957533626 -0.0043927230872 0.0092228129506 -0.0033540651202
          -0.0081145241857 -0.010288416408 0.0076607968658 -0.0034832374658 0.0012059275759 0.0028121755458
          -0.0043461942114 -0.0084527703002 0.0011359757045 0.0073513817042 0.0045421682298 0.0025511188433
          -0.00033872068161 -0.0042281984352 0.0094221616164 -0.0032204377931 -0.0080206934363 -0.010103796609
          0.007767310366 -0.0031729650218 0.0014550036285 0.0030251522548 -0.0040645138361 -0.0081125628203
          0.001411670004 0.0076991533861 0.0048073157668 0.002864880953 -7.6645650552e-05 -0.0039925915189
          0.0096902148798 -0.0030121055897 -0.0078483587131 -0.0098474966362 0.0079538710415 -0.0028053268325
          0.0017761030467 0.0033167554066 -0.0037191293668 -0.0077213705517 0.0017546949675 0.0081012584269
          0.0051429201849 0.0032376947347 0.00025426322827 -0.003682493465 0.010030664504 -0.0027258528862
          -0.007590775378 -0.0095247458667 0.0082272766158 -0.0024047819898 0.0021484529134 0.0036701618228
          -0.0033324526157 -0.0073064272292 0.002142903395 0.0085331965238 0.0055273077451 0.003647685051
          0.00063294160645 -0.0033204085194 0.010421585292 -0.0023777941242 -0.0072648148052 -0.0091555351391
          0.0085714813322 -0.0020087403245 0.0025334570091 0.0040486217476 -0.0029428042471 -0.0069060986862
          0.0025304413866 0.0089356526732 0.00591480406 0.004041719716 0.001019304269 -0.0029402077198
          0.010809729807 -0.0020043516997 -0.0068968129344 -0.0087715992704 0.0089450590312 -0.0021381056868
          0.00070160994073 0.0016323262826 -0.0026456017513 -0.0051894262433 0.00069320132025 0.004454088863
          0.0027396033984 0.0015578101156 -0.00021072651725 -0.0025409238879 0.005740668159 -0.0018915804103
          -0.004830012098 -0.0061512435786 0.0047073392197 -5.7270321122e-05 0.00088644569041 0.00024206048693
          -0.00026021923986 -0.00074339908315 -0.00068427994847 -0.0014012759784 0.0028083315119 -0.001762030879
          -0.0033839584794 0.0028994150925 -0.0018079568399 -0.0034917839803 0.0034986119717 0.0035851786379
          0.0075171007775 0.0077281007543 -0.0015880179126 -0.0070593892597 -0.0047861360945 -0.0016072527505
          -0.0071320594288 -0.0048819771037 -0.0027249492705 -0.0027540898882 -0.00028456142172 -0.00028954865411
          0.003218968166 0.0032673883252 -0.0093183321878 -0.0094651868567 0.0021781621035 0.0021904448513
          0.0064793382771 0.0065426770598 0.008736435324 0.0088903494179 -0.0080665033311 -0.0082951346412
          0.0029733937699 -0.0018173796125 -0.0035537125077 0.0036112689413 0.0078316945583 -0.0015782839619
          -0.0069967741147 -0.0048602819443 -0.0026717667934 -0.00028321315767 0.0032279922161 -0.0094369668514
          0.002121706726 0.0064141862094 0.0088695511222 -0.0083823986351 0.0030589262024 -0.0018093744293
          -0.0035867302213 0.0036757346243 0.0079713473096 -0.0015455053654 -0.006928880699 -0.0048549119383
          -0.0026092897169 -0.00025681464467 0.0032508783042 -0.0094550903887 0.0021120763849 0.0063962577842
          0.0089408168569 -0.0084663368762 0.0031361388974 -0.0017935129581 -0.003602063749 0.0037394908722
          0.0080915959552 -0.0015096907737 -0.0068727708422 -0.0048426976427 -0.0025556043256 -0.0002247265802
          0.0032842678484 -0.0094599174336 0.0021226960234 0.0064048836939 0.0090117380023 -0.0085200946778
          0.003184385132 -0.0017830922734 -0.0036107418127 0.0037802201696 0.0081665366888 -0.0014898028458
          -0.0068483720534 -0.0048381173983 -0.0025264937431 -0.00020475668134 0.003308956977 -0.0094702541828
          0.0021343945991 0.0064197424799 0.0090622948483 -0.0085536455736 0.0032054956537 -0.0017743899953
          -0.0036056484096 0.0037998603657 0.0081961369142 -0.0014802564401 -0.0068475538865 -0.0048357620835
          -0.0025167213753 -0.00019304775924 0.0033253664151 -0.0094788894057 0.0021489670034 0.0064399242401
          0.0090908762068 -0.0085624791682 0.0032359322067 -0.0017425139667 -0.0035709876101 0.0038401677739
          0.0082354350016 -0.0014539011754 -0.0068560028449 -0.0048173726536 -0.0025031163823 -0.00015921340673
          0.0033759335056 -0.0094761298969 0.0022027406376 0.0065156980418 0.009153842926 -0.0085360435769
          0.0032824717928 -0.0016782367602 -0.0034935597796 0.0039028313477 0.0082802120596 -0.0014003978577
          -0.0068492046557 -0.0047660376877 -0.0024712653831 -9.5903946203e-05 0.0034601925872 -0.0094355437905
          0.0022971176077 0.0066378852352 0.0092429397628 -0.0084551051259 0.0033141323365 -0.0016181949759
          -0.0034132620785 0.0039565232582 0.0083066355437 -0.0013600464445 -0.006875527557 -0.0047268732451
          -0.0024624324869 -4.1586827138e-05 0.0035434397869 -0.0094118742272 0.0023943395354 0.0067756823264
          0.0093315951526 -0.0083701731637 0.0033198953606 -0.0015729696024 -0.0033388540614 0.0039887209423
          0.0082988170907 -0.001340302173 -0.0069394046441 -0.0047065364197 -0.0024811387993 -2.6127493129e-06
          0.0036150554661 -0.0094115603715 0.0024870859925 0.0069139408879 0.0094036832452 -0.0082896556705
          0.0033046547323 -0.001529780915 -0.0032596571837 0.0040035448037 0.0082582430914 -0.0013254533987
          -0.0070044943132 -0.0046834484674 -0.0025076335296 2.7941032386e-05 0.0036770498846 -0.0093954382464
          0.002577874111 0.0070477598347 0.0094534009695 -0.0081865936518 0.0032885763794 -0.0014667201322
          -0.0031516812742 0.0040181959048 0.0081985061988 -0.0012949852971 -0.0070413639769 -0.0046321172267
          -0.0025178934447 7.2636183177e-05 0.0037425314076 -0.0093372967094 0.0026746583171 0.0071772634983
          0.0094857895747 -0.0080390395597 0.0032699950971 -0.0013943782542 -0.0030295655597 0.004030849319
          0.0081260669976 -0.0012557704467 -0.0070656752214 -0.0045667318627 -0.0025206436403 0.00012421529391
          0.0038096667267 -0.0092581994832 0.0027768716682 0.007305690553 0.0095085427165 -0.0078672291711
          0.0032404272351 -0.0013378449949 -0.0029259840958 0.004032551311 0.0080481944606 -0.0012333475752
          -0.0071101053618 -0.0045200772583 -0.0025404207408 0.00016115263861 0.0038651621435 -0.0092009631917
          0.0028674062341 0.0074271517806 0.009527166374 -0.0077164452523 0.0031947381794 -0.0013045495143
          -0.0028470861726 0.0040166224353 0.0079561667517 -0.0012320356909 -0.0071782437153 -0.0044988542795
          -0.002580490429 0.0001764275512 0.003900134936 -0.0091739762574 0.0029351622798 0.0075246342458
          0.0095265237615 -0.0075990082696 0.0031376513653 -0.0012930791127 -0.0027959500439 0.0039858478121
          0.0078603988513 -0.0012512857793 -0.0072555504739 -0.0044984435663 -0.0026358449832 0.00017081583792
          0.0039125038311 -0.0091665266082 0.0029751427937 0.0075940503739 0.009511156939 -0.0075120604597
          0.0030693507288 -0.0013021919876 -0.0027719554491 0.0039385654964 0.0077570355497 -0.0012813756475
          -0.0073308194987 -0.0045124362223 -0.0026938482188 0.00014841012307 0.0039018096868 -0.0091732200235
          0.0029889224097 0.0076258485205 0.0094729242846 -0.0074562756345 0.0030024822336 -0.0013298647245
          -0.0027771194 0.0038847029209 0.0076665706001 -0.0013235119404 -0.0073996130377 -0.0045430441387
          -0.0027531883679 0.00011165196338 0.0038717100397 -0.0091982092708 0.0029751101974 0.0076233120635
          0.0094231404364 -0.0074400557205 0.0029531775508 -0.00136404566 -0.0028042281047 0.0038403179497
          0.0076085766777 -0.0013613392366 -0.0074482862838 -0.0045775226317 -0.0027975137345 7.4860581663e-05
          0.0038374941796 -0.0092307385057 0.0029477437492 0.0075985956937 0.0093804197386 -0.007457785774
          0.0016171572497 -0.0011916155927 -0.0021386344451 0.0021475853864 0.0046665817499 -0.0011458031368
          -0.0048822644167 -0.0032015347388 -0.0019846151117 -0.00026504910784 0.0020644185133 -0.0061905235052
          0.0014451001771 0.0043512531556 0.00564279221 -0.005187232513 -0.00044334420818 -0.0013492972357
          -0.00071717397077 -0.00026635939139 0.00020664923068 0.00017868512077 0.00085747748381 -0.00029043364339
          -0.00017345012748 -8.8925859018e-05 -0.00018281882512 -0.00022866582731 -0.00028520083288 -0.00026394720771
          -0.00034672400216 -0.00029911819729 -0.00045341116493 -0.00022216551588 -0.00035556446528 -0.00023585488088
          -0.00058364483994 -0.00010390826355 0.00033169912058 6.18986669e-05 -0.00017649693473 -0.00043089600513
          -0.00022187257127 -0.00050752819516 -0.00026685142075 -0.00077279820107 0.00014142278815 -0.00033805752173
          -6.7957935244e-06 -0.0007863996434 -2.3090891773e-05 0.00069450621959 0.000294298894 -9.7058858955e-05
          -0.00050592294428 -0.0001430259872 -0.00058080954477 -0.00018741218082 -0.00097794702742 0.00050600426039
          -0.00025739788543 0.00022357005219 -0.00091891275952 3.4997596231e-05 0.00095096905716 0.00047456444008
          -2.5248396923e-05 -0.00054238026496 -6.252964522e-05 -0.00060349801788 -9.7970514616e-05 -0.0010727307526
          0.00079954694957 -0.00015403842553 0.00041902076919 -0.0014008085709 4.6476987336e-05 0.0014709949028
          0.00078179530101 1.1964781152e-05 -0.00077047990635 -1.0263603144e-05 -0.00081272399984 -3.2689393265e-05
          -0.0014952045167 0.0013827462681 -6.6336200689e-05 0.00075277063297 0 0
          0 0 0 0 0 0
          0 0 0 0 0
        </DataArray>
        <DataArray type="Float32" Name="uy" format="ascii" RangeMin="-0.80403631926" RangeMax="1.0995665789">
          -0.44767472148 -0.47339469194 -0.48301741481 -0.44216024876 -0.44773861766 -0.48306062818
          -0.4734531343 -0.44761070609 -0.46750697494 -0.45196583867 -0.44212183356 -0.46756640077
          -0.44767895341 -0.45200535655 -0.46741870046 -0.45196121931 -0.46746784449 -0.45199531317
          -0.49826359749 -0.46580249071 -0.49830773473 -0.4982278049 -0.49828875065 -0.49829828739
          -0.4657882154 -0.49828651547 -0.43870714307 -0.71438843012 -0.70977586508 -0.71440178156
          -0.65177458525 -0.64698821306 -0.65180134773 -0.70792543888 -0.64514648914 -0.71038705111
          -0.64782631397 -0.70106208324 -0.69964158535 -0.70511883497 -0.63826602697 -0.63686335087
          -0.64233624935 -0.69701272249 -0.63417094946 -0.70530259609 -0.64248436689 -0.70253932476
          -0.63974714279 -0.7045878768 -0.64193761349 -0.69699394703 -0.63416033983 -0.69964289665
          -0.63684755564 -0.70460015535 -0.64194452763 -0.71039134264 -0.64781212807 -0.76242810488
          -0.7576829195 -0.76245242357 -0.75577783585 -0.75825333595 -0.7488977313 -0.74739289284
          -0.75292497873 -0.74486881495 -0.75314491987 -0.75034981966 -0.7523086071 -0.74484968185
          -0.74739205837 -0.75231963396 -0.75825989246 -0.79293519258 -0.78814119101 -0.79296261072
          -0.78620100021 -0.78865587711 -0.77930945158 -0.77774769068 -0.78332132101 -0.77530217171
          -0.78356415033 -0.78074473143 -0.78263342381 -0.77528071404 -0.77774709463 -0.7826436758
          -0.78866618872 -0.80400627851 -0.79915684462 -0.80403631926 -0.79718881845 -0.7996404171
          -0.79027366638 -0.78866708279 -0.79428213835 -0.78626680374 -0.79454284906 -0.79170113802
          -0.79354453087 -0.78624409437 -0.78866690397 -0.79355585575 -0.7996532321 -0.79423958063
          -0.78934514523 -0.79427069426 -0.78735661507 -0.78981602192 -0.78039985895 -0.77876532078
          -0.78442305326 -0.77637821436 -0.78469389677 -0.78183066845 -0.78365814686 -0.77635580301
          -0.77876782417 -0.78367310762 -0.78982698917 -0.76286935806 -0.75794619322 -0.76289904118
          -0.75594645739 -0.75842142105 -0.74895173311 -0.74730843306 -0.75299715996 -0.74490749836
          -0.75326925516 -0.75038987398 -0.75222891569 -0.74488431215 -0.74731040001 -0.75224304199
          -0.75843071938 -0.70980036259 -0.70486581326 -0.70982807875 -0.70286470652 -0.70535939932
          -0.69583052397 -0.69419586658 -0.69990611076 -0.69175815582 -0.70017200708 -0.69728177786
          -0.69915342331 -0.6917347908 -0.69419592619 -0.6991674304 -0.70536679029 -0.63553744555
          -0.63059419394 -0.63556224108 -0.62859672308 -0.63112199306 -0.6215082407 -0.61989504099
          -0.62562906742 -0.61739003658 -0.62588340044 -0.62298125029 -0.6249127388 -0.61736553907
          -0.61989223957 -0.62492537498 -0.63112670183 -0.54104459286 -0.5361019969 -0.54106646776
          -0.53411370516 -0.53667777777 -0.52696216106 -0.52538281679 -0.53113985062 -0.5227868557
          -0.53137630224 -0.52846479416 -0.53047484159 -0.52276295424 -0.52537673712 -0.53048789501
          -0.5366781354 -0.42775779963 -0.4228336513 -0.42777824402 -0.42086023092 -0.4234597683
          -0.41365736723 -0.41212368011 -0.41789251566 -0.40942573547 -0.4181035161 -0.41518816352
          -0.41729325056 -0.40940257907 -0.41211465001 -0.41729933023 -0.42346477509 -0.29753518105
          -0.2926337719 -0.29755112529 -0.29068234563 -0.29332509637 -0.28341919184 -0.28193944693
          -0.28771832585 -0.27912321687 -0.28790354729 -0.28498542309 -0.28719562292 -0.27910068631
          -0.2819288671 -0.28720262647 -0.29332569242 -0.15253728628 -0.14766791463 -0.15254889429
          -0.14574070275 -0.1484272182 -0.13842116296 -0.13700200617 -0.1427860111 -0.13406012952
          -0.14294156432 -0.14002406597 -0.14234788716 -0.13404001296 -0.13698990643 -0.14235168695
          -0.14842547476 0.0048421132378 0.0096745705232 0.0048341155052 0.011572969146 0.0088460128754
          0.018939571455 0.020294470713 0.014513928443 0.023361040279 0.014390417375 0.01730251126
          0.014865931123 0.023379044607 0.020309140906 0.01486456953 0.008848560974 0.17214481533
          0.17693455517 0.17213869095 0.17880415916 0.17604063451 0.18621069193 0.18750308454
          0.18172995746 0.19068904221 0.18163564801 0.18453973532 0.18199576437 0.19070395827
          0.18751521409 0.18199549615 0.17604321241 0.34695670009 0.35170575976 0.34695252776
          0.35354751348 0.35074934363 0.36099120975 0.3622238636 0.3564581871 0.36552110314
          0.35639277101 0.35928893089 0.35664331913 0.36553251743 0.36223423481 0.3566442132
          0.35075095296 0.52697569132 0.53168606758 0.52697348595 0.53350299597 0.53067564964
          0.54097539186 0.54215580225 0.53639823198 0.54555159807 0.53635889292 0.5392460227
          0.53651094437 0.54555910826 0.54216337204 0.53651314974 0.53067654371 0.71012508869
          0.71480733156 0.7101251483 0.71660393476 0.71375095844 0.72410547733 0.72524404526
          0.71948999166 0.72872072458 0.71947002411 0.72235202789 0.71954548359 0.72872507572
          0.72524869442 0.71954643726 0.71375346184 0.89475160837 0.89941698313 0.89475184679
          0.9012016058 0.89833140373 0.90872573853 0.90983718634 0.90408265591 0.91336870193
          0.90407544374 0.90695464611 0.90410012007 0.91336995363 0.90983814001 0.90409910679
          0.89833176136 1.0797593594 1.0844166279 1.0797592402 1.0861977339 1.0833216906
          1.0937265158 1.0948280096 1.0890743732 1.0983787775 1.0890734196 1.0919505358
          1.0890772343 1.0983792543 1.0948290825 1.0890794992 1.0833207369 -0.53635370731
          -0.54699295759 -0.53637713194 -0.55108839273 -0.5443674922 -0.56912237406 -0.57153588533
          -0.55786198378 -0.58036231995 -0.55793321133 -0.56477671862 -0.55769819021 -0.58036112785
          -0.57151764631 -0.55769324303 -0.54432845116 -0.52250212431 -0.52837878466 -0.54654043913
          -0.49827516079 -0.51331818104 -0.54654788971 -0.52839082479 -0.6515942812 -0.64681923389
          -0.65162026882 -0.71413785219 -0.70954614878 -0.71414977312 -0.644985497 -0.70770663023
          -0.64765644073 -0.71015536785 -0.63812369108 -0.6367213726 -0.64217889309 -0.70087766647
          -0.69946110249 -0.70491021872 -0.63404202461 -0.69685077667 -0.64232981205 -0.70509642363
          -0.63960266113 -0.70234870911 -0.64177769423 -0.70437836647 -0.6340342164 -0.69683349133
          -0.63671272993 -0.69946795702 -0.64179420471 -0.70439732075 -0.64763981104 -0.71015381813
          -0.76210868359 -0.7573954463 -0.76212978363 -0.75550562143 -0.75796318054 -0.74867987633
          -0.74718225002 -0.75267142057 -0.74468451738 -0.75289285183 -0.75011986494 -0.75205415487
          -0.74466609955 -0.74718463421 -0.75207179785 -0.75796186924 -0.79258465767 -0.78782838583
          -0.79260641336 -0.78590893745 -0.78834122419 -0.77907955647 -0.77752774954 -0.78304845095
          -0.77511429787 -0.78329366446 -0.78050172329 -0.78235983849 -0.77509266138 -0.77753072977
          -0.78238040209 -0.7883399725 -0.80366146564 -0.79885619879 -0.80368447304 -0.79691183567
          -0.79933857918 -0.79007303715 -0.78847962618 -0.79403048754 -0.7861161232 -0.79429286718
          -0.79148298502 -0.79329204559 -0.78609251976 -0.78847968578 -0.7933126688 -0.79933649302
          -0.79392945766 -0.78909653425 -0.79395312071 -0.78713667393 -0.7895604372 -0.78028649092
          -0.77867078781 -0.78424245119 -0.7763312459 -0.78451317549 -0.78169190884 -0.78347867727
          -0.77630680799 -0.77867007256 -0.78349840641 -0.7895603776 -0.7626619339 -0.75781774521
          -0.76268714666 -0.75585341454 -0.75828206539 -0.74898707867 -0.74736529589 -0.75294995308
          -0.74502527714 -0.75322329998 -0.75039601326 -0.75218206644 -0.7450017333 -0.74736744165
          -0.75220489502 -0.75828111172 -0.70979362726 -0.70494455099 -0.70981812477 -0.70298027992
          -0.70542347431 -0.69608461857 -0.69446986914 -0.70007061958 -0.69209861755 -0.70033943653
          -0.6975056529 -0.69931924343 -0.69207727909 -0.69447505474 -0.69934213161 -0.70542317629
          -0.63576132059 -0.63091927767 -0.63578402996 -0.62896257639 -0.63142621517 -0.62203806639
          -0.62044674158 -0.62605547905 -0.61802119017 -0.62631136179 -0.62347364426 -0.62533652782
          -0.61799860001 -0.6204482913 -0.62535589933 -0.63142466545 -0.54149067402 -0.53665959835
          -0.54151064157 -0.53471451998 -0.53720831871 -0.52774745226 -0.52619194984 -0.5318095088
          -0.52368724346 -0.53204721212 -0.52920591831 -0.53114175797 -0.52366471291 -0.52618992329
          -0.53115791082 -0.53720664978 -0.42839816213 -0.42358729243 -0.4284183085 -0.42165726423
          -0.42418578267 -0.41463878751 -0.41312718391 -0.41875723004 -0.41052243114 -0.41897106171
          -0.41612687707 -0.41815382242 -0.4105027318 -0.41312581301 -0.41816619039 -0.42418837547
          -0.29828208685 -0.29350531101 -0.29829889536 -0.29160013795 -0.29416292906 -0.28454074264
          -0.28308415413 -0.28871196508 -0.28037142754 -0.28889906406 -0.28605929017 -0.28818288445
          -0.28035345674 -0.28308168054 -0.28819328547 -0.2941634655 -0.15324889123 -0.14852295816
          -0.15326209366 -0.14665184915 -0.14924433827 -0.13957104087 -0.13817775249 -0.14378367364
          -0.13535927236 -0.14394281805 -0.14111864567 -0.14333684742 -0.135344401 -0.13817727566
          -0.14334979653 -0.14924173057 0.004346546717 0.0090087167919 0.0043354127556 0.010843187571
          0.008225414902 0.017933597788 0.019258126616 0.013682346791 0.022184481844 0.013554104604
          0.016359342262 0.01404160168 0.022196210921 0.019258623943 0.014031660743 0.0082268398255
          0.1720033884 0.1766089946 0.1719955802 0.17840875685 0.17576183379 0.18551677465
          0.1867723316 0.18122267723 0.18980957568 0.18112652004 0.18391525745 0.18149380386
          0.18981960416 0.18677395582 0.18148748577 0.17576268315 0.34723129869 0.3517831862
          0.34722545743 0.35355076194 0.35087648034 0.36067658663 0.36186775565 0.35634115338
          0.36501160264 0.356274575 0.35904759169 0.3565286994 0.36501848698 0.36186924577
          0.35652521253 0.35087519884 0.52767658234 0.53218221664 0.52767288685 0.53392094374
          0.53122091293 0.54106193781 0.54219579697 0.53669041395 0.54543244839 0.53664988279
          0.5394090414 0.53680551052 0.54543840885 0.5421988368 0.53680372238 0.53122091293
          0.71128493547 0.71575033665 0.71128380299 0.71746557951 0.71474713087 0.72461700439
          0.72570508718 0.72021746635 0.72901582718 0.72019690275 0.72294533253 0.72027349472
          0.72901910543 0.72570854425 0.72027444839 0.71474653482 0.89639419317 0.90083402395
          0.89639413357 0.90253186226 0.8998003006 0.90968960524 0.91074711084 0.9052734971
          0.91410505772 0.90526634455 0.90800523758 0.90529078245 0.91410529613 0.91074824333
          0.90528905392 0.89980185032 1.0818642378 1.0862922668 1.0818639994 1.0879849195
          1.0852512121 1.0951439142 1.0961911678 1.0907210112 1.0995665789 1.090719223
          1.0934554338 1.0907236338 1.0995663404 1.0961911678 1.0907244682 1.0852502584
          -0.53623616695 -0.54688322544 -0.53626227379 -0.55097812414 -0.54425317049 -0.56902390718
          -0.57143610716 -0.55775648355 -0.58027094603 -0.55782848597 -0.564676404 -0.55759590864
          -0.58027434349 -0.57142573595 -0.55758357048 -0.54421812296 -0.52247238159 -0.52834743261
          -0.54651588202 -0.49823278189 -0.51328808069 -0.54652369022 -0.52836227417 -0.32800418139
          -0.32804048061 -0.32789900899 -0.32768288255 -0.32790184021 -0.32785469294 -0.32787513733
          -0.32766789198 -0.32789584994 -0.32790535688 -0.32801491022 -0.32805138826 -0.32784220576
          -0.22138178349 -0.2215308249 -0.22124658525 -0.22070583701 -0.22106994689 -0.22092622519
          -0.22098268569 -0.22070857882 -0.22107112408 -0.22124443948 -0.22138182819 -0.22152906656
          -0.22093015909 -0.1296582073 -0.12996588647 -0.12951971591 -0.12864370644 -0.12918150425
          -0.12886719406 -0.12903647125 -0.12864428759 -0.12918175757 -0.12952154875 -0.12965779006
          -0.12996679544 -0.12886579335 -0.059677559882 -0.060071758926 -0.059564970434 -0.058471553028
          -0.059121582657 -0.058651462197 -0.058930773288 -0.05847402662 -0.059121355414 -0.059567589313
          -0.059674218297 -0.060072060674 -0.058649614453 -0.016377905384 -0.017095057294 -0.016311924905
          -0.014665673487 -0.01550607942 -0.014769940637 -0.0152113121 -0.014668462798 -0.015506810509
          -0.016317749396 -0.016376426443 -0.017097150907 -0.01476819627 0 0
          0 0 0 0 0 0
          0 0 0 0 0
        </DataArray>
        <DataArray type="Float32" Name="uz" format="ascii" RangeMin="-0.10448523611" RangeMax="0.10413993895">
          -0.01519300323 0.0083615723997 -0.021882442757 -0.018947154284 -0.015203561634 -0.021896691993
          0.0083552943543 0.015128344297 0.047976065427 0.039695817977 0.018881928176 0.047942783684
          0.015119535848 0.039685122669 -0.048085138202 -0.039756737649 -0.048101380467 -0.039759557694
          0.026730038226 0.048871379346 0.026704637334 0.053594760597 0.053560417145 -0.053614452481
          -0.048975422978 -0.053592026234 -6.0587215557e-05 -0.0098859304562 0.0045397812501 0.0093017108738
          -0.01209816616 0.005645473022 0.011525288224 -0.012755663134 -0.01567594707 -0.025376547128
          -0.031309258193 0.004629266914 0.024956118315 0.015285613947 0.0058138566092 0.031238824129
          0.018961343914 0.0094788856804 0.011956398375 -0.00019896234153 -0.00019900545885 -0.012690225616
          -0.01574651897 0.03085520491 0.038351878524 -0.0096810152754 -0.012158515863 -0.025244232267
          -0.031551059335 -0.031238630414 -0.038714688271 0.024852335453 0.030758010224 -0.0070619783364
          0.0031500719488 0.0065213060006 -0.0090727349743 -0.018025744706 0.0032301994506 0.017622217536
          0.010753112845 0.0066783996299 -0.00019214270287 -0.0090217534453 0.021782815456 -0.0068966150284
          -0.017916407436 -0.022151352838 0.017530748621 -0.0038182851858 0.0015769040911 0.0033526038751
          -0.0048696049489 -0.0096054328606 0.0016306784237 0.0092414002866 0.0055951890536 0.0034618929494
          -0.00018092588289 -0.0048369187862 0.01143272873 -0.0037138136104 -0.0095432782546 -0.011782382615
          0.0091709475964 -0.000270210905 -0.00013269961346 -8.6900734459e-05 -0.00027469039196 -0.00041627575411
          -0.00011637074931 8.1138423411e-05 -3.5126289731e-05 -5.637220238e-05 -0.00016480192426 -0.00026469587465
          0.0001330106752 -0.00023877162312 -0.00039555045078 -0.00045631406829 6.2413579144e-05 0.0034696543589
          -0.0019317854894 -0.0037101979833 0.0045645721257 0.0092660589144 -0.0019597851206 -0.0095660258085
          -0.0059644486755 -0.0037670102902 -0.00014884254779 0.0045474735089 -0.011764757335 0.0034130841959
          0.0092308651656 0.011469413526 -0.0095309093595 0.0072770561092 -0.0037722506095 -0.0074112801813
          0.0094969952479 0.019135061651 -0.0038417864125 -0.01940808259 -0.012016099878 -0.0075513296761