<VTKFile type="UnstructuredGrid" version="1.0" byte_order="LittleEndian" header_type="UInt64">
  <UnstructuredGrid>
    <Piece NumberOfPoints="791" NumberOfCells="973">
      <PointData>
        <DataArray type="Float32" Name="ux" format="ascii" RangeMin="-1.1518546343" RangeMax="0.81570726633">
          -0.02974092029 -0.068568311632 0.012099155225 -0.020326813683 -0.01671878621 0.010241257958
          -0.060009192675 -0.09365376085 -0.18044126034 -0.13979919255 -0.094262853265 -0.14433935285
          -0.079138375819 -0.13408330083 0.07577110827 0.029991263524 0.062112536281 0.034354187548
          -0.10907199234 -0.16314859688 -0.094052247703 -0.18611718714 -0.15185002983 0.08320710808
          0.065122485161 0.11616022885 -0.057616189122 -0.13368541002 -0.097632199526 -0.085437126458
          -0.028892541304 -0.020251847804 -0.011054165661 -0.13584665954 -0.028148805723 -0.16932624578
          -0.03856259957 -0.1002003178 -0.059721291065 -0.07560364157 -0.026779379696 -0.01573093608
          -0.015346172266 -0.094096161425 -0.031173383817 -0.10693828017 -0.025027418509 -0.13398446143
          -0.030534356833 -0.041628345847 -0.0020603407174 -0.1231957674 -0.031262788922 -0.15306395292
          -0.033436056226 -0.17269288003 -0.035569749773 -0.048873987049 -0.0020358711481 -0.2878896594
          -0.23814256489 -0.22032384574 -0.29654356837 -0.34640794992 -0.23749890924 -0.18297237158
          -0.20755375922 -0.22224836051 -0.25319543481 -0.28980499506 -0.16452686489 -0.27406269312
          -0.32764717937 -0.35960838199 -0.17695605755 -0.36900496483 -0.32130497694 -0.30460369587
          -0.382363379 -0.42621636391 -0.32197642326 -0.25913521647 -0.29030743241 -0.30419236422
          -0.33817848563 -0.37613478303 -0.24302482605 -0.35838362575 -0.41508764029 -0.44524636865
          -0.25549691916 -0.30976131558 -0.25829669833 -0.24113671482 -0.31950044632 -0.36766391993
          -0.25377950072 -0.19259759784 -0.22176150978 -0.23480725288 -0.27245259285 -0.31423988938
          -0.17472665012 -0.2961884439 -0.35709160566 -0.38632917404 -0.19088736176 -0.19724428654
          -0.1273021996 -0.10615585744 -0.20569856465 -0.26362922788 -0.11982005835 -0.029248556122
          -0.072771340609 -0.097913935781 -0.14514121413 -0.20088031888 -0.0020431021694 -0.18420378864
          -0.25572037697 -0.28586125374 -0.026873447001 -0.016517333686 0.049157507718 0.068729668856
          -0.028968764469 -0.084640718997 0.04854368791 0.13964147866 0.097625896335 0.069283075631
          0.026956662536 -0.029492735863 0.16735136509 -0.018750635907 -0.086244799197 -0.1128686741
          0.1378197372 0.11088757962 0.16057595611 0.17687700689 0.097369238734 0.05302464962
          0.15500494838 0.23644141853 0.19800113142 0.17158287764 0.14134389162 0.09333319217
          0.26086589694 0.098943054676 0.043544739485 0.026583597064 0.23563958704 0.17515566945
          0.23406518996 0.25501012802 0.16050995886 0.10897967964 0.22962597013 0.32436513901
          0.28029084206 0.25174993277 0.2141173631 0.15555326641 0.34957763553 0.16338768601
          0.10027059913 0.079160802066 0.32038497925 0.16584068537 0.24957424402 0.27240824699
          0.15275837481 0.079802297056 0.25182107091 0.36626657844 0.31159627438 0.27816161513
          0.22662448883 0.15390697122 0.39757952094 0.17075252533 0.084594301879 0.049678254873
          0.36184540391 0.12927792966 0.22321374714 0.24976885319 0.11381257325 0.034479361027
          0.22544373572 0.35493403673 0.29301777482 0.25703504682 0.19331717491 0.11628273129
          0.39298048615 0.13509316742 0.038327027112 0.0013708358165 0.35139653087 0.01185457781
          0.12172567844 0.15928341448 -0.010346992873 -0.10803855956 0.12507216632 0.28205218911
          0.20565654337 0.16386476159 0.083894096315 -0.010939359665 0.32346919179 0.012144839391
          -0.10949573666 -0.15287980437 0.2759052217 -0.11696456373 0.012910978869 0.056420851499
          -0.14499944448 -0.26013484597 0.019350932911 0.21208578348 0.11524547637 0.070493362844
          -0.027432430536 -0.14309260249 0.26491048932 -0.11168693006 -0.26261839271 -0.31812432408
          0.20248928666 -0.18679411709 -0.047375831753 0.0022909312975 -0.21906729043 -0.34363231063
          -0.052898660302 0.1515494287 0.05716810748 -0.0064731701277 -0.096752114594 -0.2222519964
          0.21357299387 -0.19320034981 -0.34484884143 -0.4043777287 0.15575954318 -0.22202351689
          -0.086099885404 -0.037336751819 -0.24965338409 -0.36958983541 -0.092003978789 0.089860446751
          0.0096213333309 -0.050120543689 -0.13222840428 -0.24863007665 0.15359307826 -0.21955153346
          -0.3612909615 -0.42058369517 0.10528673232 -0.23523642123 -0.13039204478 -0.095723606646
          -0.25450789928 -0.35059562325 -0.13189409673 0.0016711240169 -0.057897437364 -0.09941367805
          -0.16601987183 -0.24845282733 0.051855348051 -0.22174176574 -0.3328127563 -0.38560476899
          0.015279657207 -0.23022446036 -0.14478883147 -0.10780398548 -0.2517363131 -0.33039480448
          -0.14874817431 -0.032996516675 -0.084202937782 -0.11976329982 -0.17645227909 -0.25171118975
          0.0044930917211 -0.2271476537 -0.32364264131 -0.36266383529 -0.022121340036 -0.12578360736
          -0.050710793585 -0.02158681117 -0.14665476978 -0.21240711212 -0.051634978503 0.055158209056
          0.0049976771697 -0.023445896804 -0.078523881733 -0.14371488988 0.089047417045 -0.12507157028
          -0.2126660645 -0.24714286625 0.059459596872 0.06164470315 0.14117309451 0.17131860554
          0.046469859779 -0.021989863366 0.14325775206 0.25343725085 0.20117217302 0.17290502787
          0.11565834284 0.050731886178 0.28868144751 0.071273431182 -0.014164617285 -0.052310198545
          0.25707760453 0.29370597005 0.37297022343 0.40257850289 0.27602142096 0.20832265913
          0.36956882477 0.48281827569 0.43212997913 0.39767029881 0.34467273951 0.27511382103
          0.51635730267 0.29011788964 0.20830924809 0.17731539905 0.48643571138 0.014134160243
          -0.032359298319 -0.046878635883 0.01921726577 0.056803703308 -0.035888515413 -0.09068904072
          -0.065627656877 -0.051413927227 -0.020395508036 0.010942098685 -0.11190579087 -0.0016701266868
          0.043115194887 0.064806051552 -0.097861506045 -0.047212671489 -0.12208889425 -0.056660983711
          -0.034189201891 0.0178407114 0.013564537279 0.066075071692 0.25172704458 0.12551955879
          0.079054094851 0.36010637879 0.2684904635 0.23248434067 0.27651581168 0.38221719861
          0.39026802778 0.46226239204 0.12660373747 -0.042102530599 0.033079337329 0.27427276969
          0.15683677793 0.20732398331 0.091326013207 0.24534969032 0.16680321097 0.30173960328
          0.27211859822 0.38037925959 -0.099937446415 0.11297974735 0.24749426544 0.35771977901
          0.37989002466 0.45689237118 0.43506169319 0.4984472394 -0.05669156462 0.13874641061
          0.40475410223 0.37307301164 0.35638320446 0.41242513061 0.44185066223 0.37538564205
          0.3425938189 0.35401517153 0.36630597711 0.38399386406 0.40888664126 0.32757234573
          0.3975957036 0.43019455671 0.45016035438 0.32946535945 0.39063546062 0.39950093627
          0.39686867595 0.38524648547 0.38176438212 0.3998426795 0.43295490742 0.41433280706
          0.40783947706 0.39431831241 0.37831622362 0.43409952521 0.37365433574 0.35753032565
          0.36639228463 0.41696986556 0.27696895599 0.32284092903 0.33514273167 0.26778757572
          0.23086632788 0.32206454873 0.39262345433 0.35759827495 0.33515149355 0.30563384295
          0.26483538747 0.41161981225 0.26789927483 0.22221007943 0.20687617362 0.38464656472
          0.09169780463 0.15886822343 0.17806147039 0.081433720887 0.023113379255 0.16124606133
          0.25676605105 0.20905549824 0.18421649933 0.1376644522 0.083912029862 0.28585731983
          0.099153898656 0.027789903805 -0.003612490138 0.25597035885 -0.091877706349 0.0021833714563
          0.034597091377 -0.11066250503 -0.19564785063 0.00072007393464 0.12814964354 0.068908214569
          0.032240591943 -0.028949979693 -0.10772823542 0.16737221181 -0.08648788929 -0.1853106916
          -0.22882518172 0.13215230405 -0.26345825195 -0.16540420055 -0.13589398563 -0.27716100216
          -0.36084786057 -0.16821505129 -0.051318734884 -0.10302022099 -0.14161247015 -0.19643475115
          -0.27293536067 -0.0099615622312 -0.25124162436 -0.34246847034 -0.38704112172 -0.039215810597
          -0.44535443187 -0.35355129838 -0.32177686691 -0.46032956243 -0.53912878036 -0.35168614984
          -0.24382281303 -0.29315578938 -0.32454279065 -0.38132113218 -0.45107954741 -0.20646223426
          -0.42496669292 -0.5160548687 -0.56166261435 -0.22989068925 -0.5439735055 -0.46873003244
          -0.43841126561 -0.56062406301 -0.63068115711 -0.46759018302 -0.3730353415 -0.41752415895
          -0.44244149327 -0.49675408006 -0.55463862419 -0.3388890028 -0.52849721909 -0.61029547453
          -0.65504020452 -0.36099538207 -0.45082205534 -0.39062857628 -0.3644221127 -0.4649964869
          -0.52295720577 -0.38782587647 -0.31160983443 -0.34760421515 -0.36452078819 -0.40853735805
          -0.45916086435 -0.28743475676 -0.438711375 -0.51161241531 -0.54538291693 -0.306058079
          -0.22231400013 -0.17930279672 -0.16699439287 -0.2307485044 -0.26827070117 -0.17657531798
          -0.1196404323 -0.14761412144 -0.16028216481 -0.19517533481 -0.22757378221 -0.1037831679
          -0.21474459767 -0.2629108727 -0.28406712413 -0.12144688517 0.039290495217 0.10337615013
          0.12154813111 0.028239658102 -0.023906314746 0.10773067921 0.20992146432 0.15770961344
          0.13499817252 0.083832032979 0.027769420296 0.23291379213 0.040722560138 -0.030232239515
          -0.048996727914 0.19537112117 0.23399969935 0.36609762907 0.40385058522 0.21104867756
          0.10306549817 0.37150123715 0.56280016899 0.46775221825 0.41544061899 0.32355907559
          0.21038745344 0.61276906729 0.23090912402 0.093012101948 0.047809112817 0.54807937145
          0.33807602525 0.49874556065 0.54627561569 0.30527153611 0.16990442574 0.50763893127
          0.75231021643 0.63067740202 0.56505429745 0.44894340634 0.30250811577 0.81570726633
          0.33199000359 0.15486779809 0.098914593458 0.73261451721 0.32718807459 0.4968957901
          0.54883295298 0.29424330592 0.1503521204 0.4983073473 0.74850863218 0.6277499795
          0.55555057526 0.44235232472 0.2892742455 0.81450003386 0.31644517183 0.13823089004
          0.078035593033 0.73366105556 0.2149181962 0.36935535073 0.41555690765 0.18100467324
          0.051523245871 0.3621751368 0.59433996677 0.48522281647 0.41136473417 0.31302580237
          0.17080111802 0.6586369276 0.18939094245 0.025135777891 -0.024876020849 0.58568453789
          -0.037379406393 0.12053696066 0.17012444139 -0.067787088454 -0.20530630648 0.11672736704
          0.34780728817 0.24050232768 0.16330215335 0.063663832843 -0.077068097889 0.41810977459
          -0.057459820062 -0.22457787395 -0.27663940191 0.34326058626 -0.42795035243 -0.25627720356
          -0.20206722617 -0.46433192492 -0.61246979237 -0.26068800688 -0.012046723627 -0.12831051648
          -0.20461913943 -0.3144184947 -0.47094920278 0.057162515819 -0.44323503971 -0.62688016891
          -0.68929898739 -0.014004039578 -0.90005135536 -0.7334651947 -0.68147021532 -0.93341046572
          -1.078283906 -0.72890794277 -0.49000197649 -0.60448426008 -0.67390161753 -0.78890579939
          -0.93151283264 -0.42097103596 -0.89933955669 -1.080586791 -1.1518546343 -0.49499845505
          0.059742446989 -0.023838721216 -0.074918463826 0.10198399425 0.17757408321 0.0031059829053
          -0.13397504389 -0.084821663797 -0.011182015762 0.022155355662 0.11825548112 -0.19824466109
          0.12366220355 0.21984028816 0.23928679526 -0.17379702628 -0.044890690595 -0.1445672363
          -0.055765639991 -0.036314450204 0.034430406988 0.044764209539 0.11438044906 -0.064480677247
          -0.054249107838 -0.051993645728 -0.069834396243 -0.072039231658 -0.078050866723 -0.087469935417
          -0.10163185745 -0.10045345873 -0.11977803707 -0.1039519161 -0.11426725239 -0.094844900072
          -0.023369278759 -0.003641391173 -0.024085935205 -0.084273479879 -0.071190685034 -0.074433550239
          -0.11345479637 -0.15263934433 -0.15400402248 -0.20317234099 -0.19219067693 -0.21719062328
          -0.13949643075 0.038522485644 0.073305614293 0.035807002336 -0.058714207262 -0.043632555753
          -0.052941378206 -0.11694030464 -0.17466369271 -0.18397925794 -0.25939637423 -0.25041162968
          -0.28658208251 -0.1638314873 0.047829903662 0.083526961505 0.052078869194 -0.036858096719
          -0.021718993783 -0.030587637797 -0.087078697979 -0.14444303513 -0.14862288535 -0.22079183161
          -0.20275942981 -0.24267531931 -0.12396022677 0.061357982457 0.063175201416 0.043333239853
          -0.01309935376 0.0057542598806 0.0039273290895 -0.038701061159 -0.074605181813 -0.080749243498
          -0.11623331904 -0.12723065913 -0.1388592124 -0.072772018611 1.2630774204e-09 -5.3252429133e-09
          8.0467615904e-10 -2.2362693641e-10 -5.9663751717e-10 -5.4429006441e-11 8.5173562647e-11 2.3718752114e-13
          6.1158212826e-13 0 0 0 -7.560824254e-13
        </DataArray>
        <DataArray type="Float32" Name="uy" format="ascii" RangeMin="-1.1729345322" RangeMax="1.6926693916">
          0.55171048641 0.47271925211 0.44212082028 0.65949845314 0.7461656332 0.6340777874
          0.66792881489 0.55285316706 0.48163464665 0.56993001699 0.65475839376 0.68002843857
          0.74328321218 0.69062882662 0.48004361987 0.57097649574 0.68756490946 0.69600921869
          0.40062472224 0.59478324652 0.57478648424 0.39869320393 0.57232010365 0.57148903608
          0.59897500277 0.38905122876 0.66802936792 -0.26574555039 -0.23398932815 -0.2663718164
          0.11135739088 0.12473127246 0.10805735737 -0.21866679192 0.13456995785 -0.23518484831
          0.12664365768 -0.16968108714 -0.15796352923 -0.19998542964 0.148188591 0.15557527542
          0.13907386363 -0.13926941156 0.15578304231 -0.20057477057 0.13995532691 -0.18064577878
          0.14621040225 -0.19639502466 0.14156222343 -0.14327818155 0.14965438843 -0.15913572907
          0.14711561799 -0.19539949298 0.14162513614 -0.2402741313 0.12070658803 -0.48045900464
          -0.42877143621 -0.4791931808 -0.40785861015 -0.43492886424 -0.33476039767 -0.32994064689
          -0.3836042583 -0.29433569312 -0.37880259752 -0.34471267462 -0.38415062428 -0.285004884
          -0.30890777707 -0.36517572403 -0.44180861115 -0.53653967381 -0.48710426688 -0.53536248207
          -0.46282204986 -0.49564608932 -0.38882035017 -0.38521367311 -0.44181668758 -0.34492692351
          -0.43660128117 -0.39882299304 -0.44324445724 -0.33355799317 -0.36070752144 -0.42355021834
          -0.49819925427 -0.53535914421 -0.48040917516 -0.53070801497 -0.46375417709 -0.49423497915
          -0.38111069798 -0.37049362063 -0.43080994487 -0.33265671134 -0.43144112825 -0.39577400684
          -0.42738863826 -0.3231523037 -0.35698413849 -0.42429131269 -0.48904812336 -0.4703207016
          -0.40242508054 -0.47048419714 -0.3797558248 -0.41689255834 -0.2701125443 -0.25014877319
          -0.33322846889 -0.20572502911 -0.33629614115 -0.29888930917 -0.32476571202 -0.20427471399
          -0.25373372436 -0.33450394869 -0.41128709912 -0.22896820307 -0.16453650594 -0.23016217351
          -0.13877339661 -0.17850892246 -0.032022338361 -0.014269157313 -0.099373683333 0.036068879068
          -0.098746776581 -0.057983577251 -0.098405957222 0.035029560328 -0.017076279968 -0.096830606461
          -0.18016992509 0.063771940768 0.118011944 0.061348170042 0.14152507484 0.10472773761
          0.23638089001 0.24959856272 0.17503114045 0.29339039326 0.17860771716 0.21219334006
          0.17465472221 0.29009240866 0.24300330877 0.17341646552 0.1012525782 0.19496822357
          0.25776568055 0.19216096401 0.28415054083 0.24412979186 0.38768002391 0.39956185222
          0.32023826241 0.45285755396 0.32323399186 0.36345556378 0.31552526355 0.45114001632
          0.39902234077 0.32184740901 0.23731517792 0.18940909207 0.27249479294 0.18785840273
          0.3032977283 0.25055587292 0.43978655338 0.45768114924 0.35721072555 0.52217525244
          0.35687667131 0.40462467074 0.35177126527 0.51855665445 0.45533761382 0.34965407848
          0.25042483211 0.13545589149 0.22401703894 0.12788772583 0.26297363639 0.21030935645
          0.40637883544 0.42550417781 0.31238314509 0.49611359835 0.31849372387 0.37251728773
          0.30971586704 0.49438875914 0.42499986291 0.31928524375 0.19374617934 0.045473359525
          0.15356618166 0.041552945971 0.19977080822 0.13229869306 0.37621429563 0.39787763357
          0.26171135902 0.48833176494 0.26603898406 0.33514103293 0.2575379312 0.49063429236
          0.40426489711 0.26647937298 0.12108979374 -0.11950042099 0.015609073453 -0.12021309882
          0.07105255127 -0.018298801035 0.30305686593 0.3345451355 0.15866713226 0.44618493319
          0.15800966322 0.24689525366 0.15313084424 0.44530269504 0.33410027623 0.15605835617
          -0.018409827724 -0.3646749258 -0.21767988801 -0.3656360805 -0.15899300575 -0.25030001998
          0.082404635847 0.1168346256 -0.068945735693 0.23049741983 -0.067167051136 0.026176791638
          -0.068938918412 0.23035982251 0.12077000737 -0.063726745546 -0.25423276424 -0.56502783298
          -0.42715373635 -0.56465297937 -0.37321048975 -0.45609363914 -0.15383461118 -0.11812577397
          -0.28584936261 -0.021035127342 -0.29017239809 -0.20584253967 -0.28357619047 -0.021197767928
          -0.12022965401 -0.28573137522 -0.45468741655 -0.57926261425 -0.46665677428 -0.57920992374
          -0.4244967103 -0.49046844244 -0.24921704829 -0.22240887582 -0.35473227501 -0.15035386384
          -0.35657519102 -0.28662359715 -0.3505666256 -0.14777129889 -0.21880106628 -0.34915062785
          -0.49144548178 -0.43329396844 -0.34359559417 -0.42990463972 -0.31043279171 -0.36287885904
          -0.17514136434 -0.15257620811 -0.25595667958 -0.090291447937 -0.25557345152 -0.20417386293
          -0.25466880202 -0.088617943227 -0.1485016495 -0.25380602479 -0.35697084665 -0.24495455623
          -0.16211733222 -0.23881523311 -0.13598045707 -0.18655414879 -0.0041883401573 0.017408842221
          -0.081624805927 0.077473267913 -0.084983423352 -0.033778473735 -0.076329298317 0.078508809209
          0.018479047343 -0.084047973156 -0.17276331782 -0.0086836721748 0.075663901865 -0.0077514061704
          0.10796813667 0.059847589582 0.23940762877 0.26076442003 0.15990111232 0.31630373001
          0.15910290182 0.20847839117 0.163468346 0.31723064184 0.25765955448 0.15996855497
          0.056818246841 0.30249965191 0.38017204404 0.3008980155 0.41425457597 0.36600226164
          0.53287488222 0.5489180088 0.45597705245 0.60951572657 0.45916745067 0.50413888693
          0.45563668013 0.60931795835 0.55416887999 0.46257323027 0.3611702323 0.75155353546
          0.64326673746 0.75100833178 0.60479837656 0.66994303465 0.44812017679 0.41960424185
          0.53775256872 0.3553597033 0.54532897472 0.48590278625 0.53593468666 0.35847681761
          0.42765063047 0.54497146606 0.66582870483 0.48389548063 0.45899477601 0.38797417283
          0.57692289352 0.51741248369 0.38790005445 0.45392557979 -0.88622373343 -0.74789589643
          -0.88295602798 -0.96786177158 -0.87212884426 -0.96267211437 -0.70055001974 -0.84006726742
          -0.78131562471 -0.89708060026 -0.49115902185 -0.45512348413 -0.61427313089 -0.69253915548
          -0.66656756401 -0.7767816186 -0.36781337857 -0.60643476248 -0.61869215965 -0.78384763002
          -0.54085749388 -0.7286182642 -0.60894340277 -0.77053594589 -0.37138414383 -0.60643690825
          -0.46572399139 -0.67434060574 -0.61916422844 -0.78490144014 -0.77503961325 -0.88523727655
          -0.87264895439 -0.83586210012 -0.86860227585 -0.82412642241 -0.84392094612 -0.77917850018
          -0.77108919621 -0.80495744944 -0.7547891736 -0.8049851656 -0.78678691387 -0.79868298769
          -0.74996715784 -0.76472121477 -0.79931992292 -0.83695566654 -0.66325604916 -0.67068117857
          -0.65804362297 -0.67450964451 -0.66623973846 -0.70550560951 -0.71287488937 -0.68440926075
          -0.73305767775 -0.68357807398 -0.69171279669 -0.68181806803 -0.72399479151 -0.69661569595
          -0.67537111044 -0.65949189663 -0.27916494012 -0.32485148311 -0.27724331617 -0.34387350082
          -0.31342861056 -0.42238152027 -0.43250575662 -0.37173715234 -0.47280332446 -0.37316718698
          -0.40059378743 -0.36445856094 -0.46840322018 -0.42673289776 -0.36672481894 -0.30603384972
          0.2107064575 0.14186437428 0.21387694776 0.11493773758 0.16019412875 -0.003478791099
          -0.02177910693 0.065231472254 -0.070135422051 0.069044992328 0.025333646685 0.067381411791
          -0.069641023874 -0.017177067697 0.070911057293 0.15713913739 0.73098069429 0.63587498665
          0.72972929478 0.59527468681 0.65266287327 0.44317352772 0.41854128242 0.53955560923
          0.34965956211 0.53982418776 0.47789886594 0.53702396154 0.3480399847 0.41538858414
          0.52934008837 0.65481436253 1.0259728432 0.93283116817 1.0278668404 0.89394152164
          0.94735598564 0.75640368462 0.73345005512 0.84331351519 0.67168360949 0.84222322702
          0.78453403711 0.83398282528 0.66900366545 0.7249507308 0.82854294777 0.94795912504
          1.0845673084 0.99741995335 1.0837959051 0.96369576454 1.01247859 0.83605474234
          0.81467360258 0.91428369284 0.75840646029 0.91388338804 0.86377960443 0.90856045485
          0.75327152014 0.80784159899 0.90421813726 1.0096584558 0.95405936241 0.8715749383
          0.95244681835 0.84031653404 0.88771128654 0.71604192257 0.69885456562 0.79138374329
          0.64583384991 0.79235088825 0.74061942101 0.78458535671 0.63929235935 0.68479263783
          0.78138500452 0.88286417723 0.59697794914 0.5292250514 0.58979856968 0.51106315851
          0.55079108477 0.40842920542 0.39795050025 0.46761605144 0.35323244333 0.47102639079
          0.43157950044 0.46111395955 0.34512513876 0.38364428282 0.46698987484 0.53484094143
          0.10169427842 0.056039631367 0.1005717665 0.042782276869 0.068724408746 -0.027447694913
          -0.035119988024 0.015088037588 -0.068514578044 0.016076577827 -0.010278539732 0.01602531597
          -0.069906786084 -0.039140257984 0.017679402605 0.068431548774 -0.3187109828 -0.37643408775
          -0.3107509017 -0.40310171247 -0.36608579755 -0.50661849976 -0.52155929804 -0.43851518631
          -0.57806003094 -0.44137239456 -0.47964817286 -0.43202766776 -0.57256507874 -0.51389956474
          -0.43675640225 -0.35211977363 -0.48478224874 -0.61465102434 -0.47848209739 -0.66780108213
          -0.58344823122 -0.88127666712 -0.90730112791 -0.74666798115 -1.01572752 -0.74927604198
          -0.82790648937 -0.73666989803 -1.0112723112 -0.90114718676 -0.73930203915 -0.57245051861
          -0.49643155932 -0.65902233124 -0.49122354388 -0.72112834454 -0.61833828688 -0.99753969908
          -1.0369639397 -0.82601463795 -1.1729345322 -0.82620018721 -0.92500674725 -0.8188931942
          -1.1651403904 -1.0245984793 -0.81523054838 -0.61143618822 -0.3826495111 -0.55074238777
          -0.37918949127 -0.61526679993 -0.50607204437 -0.89742863178 -0.93804657459 -0.72056746483
          -1.0774586201 -0.72221165895 -0.82349741459 -0.71565842628 -1.0687185526 -0.92655557394
          -0.711845994 -0.50584727526 -0.1350954771 -0.28982561827 -0.13395741582 -0.34874418378
          -0.2481495738 -0.61878961325 -0.65968161821 -0.44950649142 -0.79509532452 -0.45056939125
          -0.55115795135 -0.44334843755 -0.78534621 -0.64735352993 -0.442150563 -0.24742992222
          0.31764504313 0.15769222379 0.31974184513 0.099245361984 0.19982661307 -0.17666640878
          -0.22081193328 -0.0075035355985 -0.35293656588 -0.0078343823552 -0.10747786611 -0.002942733001
          -0.34272485971 -0.20116961002 0.0074191661552 0.20023792982 0.9796256423 0.81041479111
          0.98337221146 0.74481004477 0.85070955753 0.45841157436 0.41307535768 0.63649690151
          0.27564519644 0.63566577435 0.52856904268 0.63903570175 0.27926060557 0.42506042123
          0.64088249207 0.85454726219 1.6921759844 1.5186892748 1.6926693916 1.4528522491
          1.5606626272 1.163842082 1.1200554371 1.3414335251 0.98932772875 1.3420238495
          1.2322684526 1.3396325111 0.99032211304 1.1247137785 1.3420971632 1.563284874
          -0.20656935871 -0.17647965252 -0.20839878917 -0.16595356166 -0.18401639163 -0.10695765913
          -0.093995161355 -0.13990236819 -0.072857283056 -0.14253440499 -0.12463571876 -0.13804593682
          -0.078816540539 -0.10730139166 -0.14846374094 -0.18438024819 0.33240047097 0.31596460938
          0.26428261399 0.40138930082 0.35176551342 0.26122799516 0.3041062355 0.83965116739
          0.85443288088 0.86695247889 0.87798601389 0.85166448355 0.82961344719 0.84953981638
          0.87422806025 0.84671920538 0.85500925779 0.82984858751 0.84129172564 0.82814973593
          0.71134889126 0.77276772261 0.83656877279 0.87909305096 0.77600067854 0.67870825529
          0.77393752337 0.8788125515 0.7759719491 0.83583009243 0.71209597588 0.7726803422
          0.67714589834 0.57330000401 0.68330436945 0.78717577457 0.8503703475 0.67894351482
          0.50663077831 0.67738670111 0.84393674135 0.67283463478 0.77317267656 0.56674307585
          0.66600185633 0.50517892838 0.42583656311 0.51421886683 0.60848730803 0.67045426369
          0.51701670885 0.37252753973 0.51826751232 0.66577106714 0.51694625616 0.60587924719
          0.42378991842 0.51115524769 0.37223705649 0.1847717315 0.24546122551 0.30156803131
          0.32655751705 0.23814238608 0.1415963769 0.23605357111 0.32295829058 0.23944690824
          0.29319646955 0.19127851725 0.24750514328 0.14715820551 -5.5909218227e-11 -3.6613767573e-10
          1.5503540118e-10 -7.3939743217e-11 -9.9830886613e-11 5.775318071e-11 -1.2959622958e-11 1.3240747474e-12
          -2.943446539e-13 0 0 0 2.7910763978e-12
        </DataArray>
        <DataArray type="Float32" Name="uz" format="ascii" RangeMin="-0.49760603905" RangeMax="0.45699027181">
          -0.14735920727 -0.075519822538 -0.17298832536 -0.16629415751 -0.169250682 -0.19219726324
          -0.10433347523 -0.057671587914 0.059137377888 0.0051202527247 -0.065873406827 0.01847307384
          -0.087137021124 -0.012890636921 -0.26322963834 -0.22240784764 -0.27590355277 -0.23576122522
          -0.014374707825 0.02842480503 -0.044303454459 0.07641735673 0.040140595287 -0.29736450315
          -0.26338350773 -0.28796026111 -0.11594712734 -0.095366165042 -0.066008403897 -0.011707768776
          -0.1501211375 -0.073821052909 -0.035191748291 -0.15201798081 -0.18443703651 -0.18773569167
          -0.25766459107 -0.12540104985 -0.038527917117 -0.0481168814 -0.098200172186 0.034424763173
          -0.017828946933 -0.13380655646 -0.074169419706 -0.11681667715 -0.11518540233 -0.19094076753
          -0.2048522532 0.025530947372 0.082677058876 -0.22272194922 -0.2053488791 -0.26928347349
          -0.29938793182 -0.25521829724 -0.31679672003 0.033811572939 0.054736021906 -0.054238557816
          -0.057071927935 -0.016095280647 -0.10162423551 -0.10585940629 -0.11037153751 -0.073005855083
          -0.058383539319 -0.13399003446 -0.092524655163 -0.13484740257 -0.022817745805 -0.17137765884
          -0.17757746577 -0.15281674266 -0.0040175481699 -0.055043738335 -0.051986921579 -0.04788255319
          -0.057854302227 -0.061596866697 -0.051986023784 -0.040210343897 -0.045015651733 -0.051302544773
          -0.052983224392 -0.058151703328 -0.037538494915 -0.059620723128 -0.062524415553 -0.063078954816
          -0.041661065072 -0.067822344601 -0.057119429111 -0.087308332324 -0.026630181819 -0.034278579056
          0.00081308902008 -0.016816645861 -0.044217448682 0.026533866301 -0.0237652082 0.01039636042
          -0.061203181744 0.046547055244 0.03997181356 0.0093044675887 -0.087355345488 -0.068627581
          -0.071221843362 -0.12769062817 -0.0018180755433 0.011274518445 0.0065715303645 -0.047885797918
          -0.066096097231 0.032209526747 -0.017159992829 0.046878769994 -0.11346656084 0.092402383685
          0.10993707925 0.080328278244 -0.14328017831 -0.04646293819 -0.069154165685 -0.13102130592
          0.018367394805 0.052485059947 -0.0043817930855 -0.090940326452 -0.082567162812 0.0062243714929
          -0.01427454222 0.060032352805 -0.15767322481 0.096271105111 0.14389525354 0.12435843796
          -0.17173555493 -0.034306414425 -0.056849304587 -0.098737634718 0.010010866448 0.040780074894
          -0.014849283732 -0.087917476892 -0.073294259608 -0.012472433038 -0.017798800021 0.04124603793
          -0.13307408988 0.062633067369 0.10506219417 0.094185382128 -0.13457739353 -0.03495657444
          -0.048474125564 -0.064814731479 -0.016989147291 -0.0053907213733 -0.029250672087 -0.063646644354
          -0.060075931251 -0.025579398498 -0.032315503806 -0.0016662648413 -0.086076267064 0.01011220552
          0.026249850169 0.019192006439 -0.084406077862 -0.022930184379 -0.029579848051 -0.024092767388
          -0.028105875477 -0.025726230815 -0.037833891809 -0.040725857019 -0.037005167454 -0.03853174299
          -0.033133469522 -0.032825477421 -0.036162555218 -0.035009257495 -0.033750813454 -0.02993023023
          -0.029240105301 0.0060150343925 -0.00067724875407 0.020370827988 -0.018691256642 -0.014752701856
          -0.038933515549 -0.0224545151 -0.0081074247137 -0.05396675691 -0.022591037676 -0.042945530266
          0.0093428641558 -0.06927908957 -0.063189931214 -0.039968453348 0.024718860164 0.03810659796
          0.03470409289 0.072366006672 -0.0073770084418 -0.0085948109627 -0.018377382308 0.0051084146835
          0.028805628419 -0.043108589947 0.00035248501808 -0.039024140686 0.0507315211 -0.071597680449