<VTKFile type="UnstructuredGrid" version="1.0" byte_order="LittleEndian" header_type="UInt64">
  <UnstructuredGrid>
    <Piece NumberOfPoints="791" NumberOfCells="973">
      <PointData>
        <DataArray type="Float32" Name="ux" format="ascii" RangeMin="-16377.963867" RangeMax="14275.232422">
          5029.7900391 -4242.8422852 911.95141602 5871.5439453 -2656.3579102 1828.7711182
          3256.9387207 -92.205352783 -1930.8186035 -2202.7282715 2087.6708984 209.83265686
          -143.7228241 -2079.4567871 3022.7578125 790.63909912 -189.33981323 -1182.8914795
          1974.9841309 1218.9238281 -1073.4659424 -2036.2780762 2066.0021973 1961.1889648
          2403.5898438 4272.4838867 -4160.8745117 -2532.7858887 6913.3735352 -9563.5634766
          -3769.9262695 14275.232422 -16377.963867 -10048.512695 -13656.369141 2291.3164062
          -52.627895355 -3839.1867676 1495.3540039 -853.44543457 -7569.644043 394.5005188
          -3978.8708496 5444.184082 8775.8427734 -6348.9619141 -2059.8752441 9830.5820312
          9214.8632812 1409.588501 -1569.0043945 -5556.4101562 -2971.7028809 -2374.5270996
          -240.21340942 -1230.116333 -4820.1357422 -3966.5866699 -1606.1439209 -4924.7749023
          -2428.4404297 -2256.1762695 1020.8257446 2384.6950684 -4519.4946289 3090.470459
          -2222.9350586 3809.486084 -539.13964844 -5423.9545898 3676.060791 -1638.6689453
          -961.57769775 1249.3601074 464.49127197 -4423.7460938 1012.3467407 1130.6245117
          10404.529297 -3944.3120117 -837.11096191 3111.6071777 6513.4355469 6799.5610352
          -1330.6096191 -5357.1850586 4694.5087891 501.33630371 227.27583313 2559.6569824
          -714.93554688 -1416.5324707 3559.494873 3317.0703125 1580.8249512 -1082.7399902
          -3524.7839355 1853.4855957 -2295.2468262 -3538.8764648 -1885.2155762 -5496.4741211
          3487.298584 -5633.6318359 -950.81079102 -2126.0991211 3456.7390137 4374.1328125
          5586.7446289 6270.9360352 5306.3930664 662.81744385 -4641.324707 -3711.7265625
          -1194.4639893 -4215.3569336 -1382.2752686 -457.3757019 -600.6932373 1347.5374756
          1418.2911377 1528.6247559 -221.56813049 -994.46697998 -1067.3345947 -2079.1948242
          -2164.7011719 -1645.3780518 -3454.4138184 -1779.6324463 -1913.0148926 -888.01965332
          -654.63562012 -563.04504395 -325.52667236 1528.9058838 1032.1813965 2322.715332
          855.6618042 -1048.5856934 3575.4089355 -904.93817139 -5064.0449219 -1985.5319824
          6635.5712891 3901.3896484 7408.4667969 1328.5356445 -5075.6044922 3653.4758301
          2366.9265137 -776.51513672 -2803.3725586 -447.72192383 -171.60971069 -1357.7574463
          5593.1044922 -2403.0092773 1864.93396 -161.22265625 12100.040039 -362.07299805
          1468.0437012 -6103.6513672 -15292.177734 3086.5478516 -211.1023407 -3754.3496094
          -6383.480957 731.87359619 174.03289795 1586.5831299 -2626.5710449 4012.4914551
          4762.5507812 3657.3125 9739.7705078 1891.7490234 3169.5854492 -2487.7709961
          -7463.0415039 9804.0722656 946.98675537 -3194.8017578 -5406.1469727 3958.0317383
          245.88258362 1210.4904785 -7747.6831055 1745.6843262 -4025.317627 4543.2016602
          -4242.394043 1498.6882324 -59.344112396 -969.27093506 7041.2412109 -1580.8778076
          -791.69348145 -310.7562561 -871.26489258 408.57617188 -2104.6323242 71.201042175
          -76.714324951 -3142.3059082 -2835.7958984 2315.8188477 -5744.0751953 2077.8356934
          -2820.0820312 1033.9296875 7320.0063477 -7099.3183594 793.34753418 1598.2071533
          2460.7683105 -1432.416748 -292.55203247 -4007.7180176 6485.6689453 -2729.529541
          9446.6699219 -4299.8188477 4283.1542969 2235.9655762 1379.6334229 -417.20266724
          -4534.2412109 -5254.5039062 -1269.3470459 211.38964844 9.294216156 536.65899658
          149.30541992 -4938.8691406 742.34667969 -2713.40625 924.19067383 -2907.1950684
          5821.0644531 3202.1418457 1598.7612305 7601.9848633 -6326.4238281 5762.3964844
          116.30084991 2868.3249512 -1443.9754639 89.78326416 -2871.0769043 -4889.0097656
          -5517.7768555 -3452.1809082 -2916.8642578 -1588.4052734 6493.6293945 3557.8974609
          -827.28460693 1489.4505615 -5570.0830078 4510.7631836 -1374.7827148 -292.36447144
          54.942375183 203.22160339 -1482.4885254 -4737.6181641 -10855.24707 1795.1922607
          -3377.2426758 -834.8626709 -598.45562744 5136.3286133 -3252.6633301 838.67401123
          5788.4165039 -5327.4521484 -1057.4759521 -5639.0424805 -1380.5275879 -5102.9741211
          -249.12670898 1249.8494873 2286.6711426 -2926.4267578 -3456.1887207 3314.4921875
          -107.62418365 3730.9946289 -834.94140625 5839.3261719 4980.0263672 4116.534668
          288.76739502 -1723.331543 4057.6169434 -3102.0227051 -369.3085022 1228.5726318
          1519.3925781 3431.4372559 5621.8681641 -582.49151611 -1373.5151367 3671.7016602
          -937.93835449 596.47698975 6736.5327148 -7017.5854492 -2426.9125977 1531.4202881
          4860.5986328 -1357.3398438 1114.6602783 3338.3691406 6008.1254883 -741.10614014
          1915.8526611 1256.6313477 -161.08023071 -1481.9562988 -5992.3842773 -6965.8745117
          5303.8349609 -4547.4506836 -2153.1037598 -302.69281006 1397.425293 1221.0507812
          546.86639404 1353.9949951 3412.3342285 -2312.5981445 1065.4974365 578.47332764
          1207.8811035 -1971.4249268 -2889.3339844 -3056.9741211 -956.90777588 597.59429932
          -1563.6920166 1144.5930176 -244.69921875 1457.9108887 -1054.0341797 -2344.5500488
          8494.2021484 -6590.1591797 -9546.3623047 366.63394165 547.85498047 2440.5219727
          -815.86517334 2804.5112305 -1019.2813721 6862.7182617 1626.7556152 -2044.1431885
          -4839.2851562 -523.61395264 2164.6640625 5507.1425781 2547.512207 -2284.9782715
          781.90466309 -119.24006653 728.65148926 783.44506836 439.53240967 -4509.1767578
          5004.6254883 -5.7373981476 3241.1433105 4972.4799805 -4935.2646484 -6240.1884766
          -2044.6789551 1361.3574219 1883.7744141 83.383041382 4218.7797852 -3189.048584
          412.81448364 2531.3359375 -1131.621582 5106.9711914 -1274.6199951 5720.6831055
          6622.6279297 3249.9047852 -199.10289001 2852.9504395 -4349.1967773 -697.77349854
          -4889.8164062 -5283.9902344 -906.79797363 -2779.7167969 1264.7478027 6058.9775391
          1025.7491455 -7065.296875 9624.6425781 -3626.3459473 2426.6096191 -248.697052
          -330.81451416 4003.8752441 1797.2357178 8023.4731445 -427.74346924 508.09909058
          905.34973145 -103.79516602 -1839.9291992 1677.3225098 -2397.6135254 -9219.0078125
          9612.5087891 -273.12994385 -2576.5095215 2463.2185059 -923.68487549 -3862.5830078
          -3181.3271484 5564.7768555 -1162.5671387 993.89154053 175.5165863 299.675354
          -1039.791748 1177.1535645 1493.7226562 -7098.1601562 4119.8896484 -12.402955055
          -3098.137207 -4340.0595703 -2846.1567383 4280.4667969 1140.1151123 6979.5844727
          -4732.0717773 -1371.1040039 2143.935791 -4952.2851562 2701.2736816 1674.5349121
          2262.5302734 -4208.0507812 6739.2563477 -549.79931641 -3836.954834 4702.6660156
          -1388.7142334 10556.591797 -841.20861816 2604.6555176 -2900.9755859 1229.7945557
          -1249.3375244 -6177.7739258 461.49581909 2882.4467773 -1726.5440674 -3305.0395508
          -657.60882568 2187.2912598 -1176.4952393 6117.6665039 -3602.987793 2965.1455078
          -4377.0654297 -2451.2387695 1049.5559082 1804.43396 1884.8276367 1180.8482666
          1882.7523193 52.651672363 -1108.3272705 -6642.1245117 220.86035156 -4180.878418
          -1121.7717285 -2531.8652344 -940.40002441 -638.13214111 -4901.0615234 -5386.684082
          2469.953125 -149.63621521 -1984.9682617 361.12219238 -1679.8597412 -768.10284424
          1205.5239258 -1190.0584717 2064.4768066 3946.309082 2693.4467773 -4483.796875
          -2400.0749512 1989.041748 -2312.5563965 -4673.5126953 437.50982666 -1787.1661377
          -3228.9196777 -143.02470398 -1373.3779297 -1228.1379395 2018.9000244 2538.842041
          5381.4848633 4027.1992188 2247.2724609 -6024.0024414 2273.3291016 5105.4140625
          2405.3789062 6685.5571289 2241.4980469 -1716.2125244 1080.8999023 -2059.9152832
          -144.19604492 3309.6323242 -1774.8605957 5031.3862305 -124.12471008 5187.7158203
          2169.4133301 -97.582954407 588.91516113 39.993358612 -1047.7020264 -2853.534668
          -1839.4511719 -1136.8015137 2787.0004883 1761.5070801 56.560440063 2666.5092773
          50.74420929 -6849.3276367 6335.4057617 -5200.2045898 3055.4511719 -3396.4194336
          1472.7047119 -2027.7099609 40.016056061 7237.9179688 -3063.9199219 263.91104126
          -3014.0830078 -1369.7250977 -4203.9399414 1763.5715332 3015.4709473 -1279.1018066
          1470.2390137 -5267.371582 4076.8991699 321.08493042 2367.7353516 -4038.4677734
          -1314.5047607 7061.9130859 -3200.9931641 -2979.2597656 -2726.1154785 1271.3270264
          -5439.1582031 1698.9594727 2317.489502 -1177.2071533 -1783.2424316 5808.2124023
          1165.1663818 -8124.3676758 -2168.0805664 -2307.8850098 1550.0437012 6525.9755859
          -3582.9101562 -5176.640625 4716.519043 791.08404541 1712.7512207 -3257.369873
          -122.78185272 2728.6894531 941.89105225 9128.2636719 459.07821655 -4907.7504883
          -5700.8945312 -28.618560791 933.69848633 -2013.7828369 3377.0610352 -5078.265625
          3368.3405762 -1794.1390381 2154.1503906 -2901.6918945 -378.98223877 -2224.2441406
          -3237.3652344 3166.1013184 1345.3494873 -1122.2768555 -4556.4799805 536.9052124
          -2000.5361328 -3895.385498 3653.1674805 -3415.0783691 3413.001709 -1033.9342041
          1895.6008301 -2448.3625488 798.80389404 -7390.3481445 147.34063721 -7059.1713867
          366.050354 690.99121094 1630.8106689 2942.6933594 2773.4182129 8252.1542969
          823.63153076 668.06048584 2921.1665039 -418.46917725 -1527.732666 2570.6279297
          2258.4326172 -6238.6704102 -2595.6633301 -16092.618164 6322.9643555 -10008.441406
          3432.9619141 1328.3104248 7257.6660156 13620.959961 264.86810303 -63.997337341
          1054.3391113 -545.24572754 -4430.3588867 2678.0688477 -556.33239746 -4318.8666992
          -2354.2961426 -5942.2021484 2037.772583 -6046.9106445 -3848.4758301 1342.9991455
          4146.8857422 5358.7895508 1349.4707031 906.24371338 2569.3146973 3581.2380371
          1553.9309082 -2771.0488281 -1438.5406494 -1529.5523682 2003.3035889 1506.3314209
          -2263.0852051 -2425.9428711 -1090.5228271 2590.4506836 2090.9191895 4766.3286133
          -2924.109375 1615.1221924 1984.4155273 1082.6661377 886.3805542 -561.01983643
          837.61260986 -6426.0424805 -4346.2841797 -7878.4169922 2427.4123535 4737.9316406
          -424.43286133 1557.8116455 -39.667377472 1516.8630371 6938.3500977 -955.83880615
          1427.6560059 822.43109131 3051.1430664 -5199.2797852 812.61914062 111.24575043
          1985.8148193 3116.7382812 5211.3837891 2289.9873047 120.59528351 -8666.0810547
          -1656.7875977 -6408.3701172 -5067.3754883 -6422.5913086 -5103.3305664 -2774.1791992
          2543.5966797 2148.6796875 3637.9975586 1548.4185791 -745.17120361 3315.324707
          -2624.7524414 1804.095459 -3790.5900879 3900.4680176 263.2008667 -1567.8400879
          6520.925293 4751.8339844 898.87457275 2005.345459 -1509.9671631 -2505.4116211
          3710.6699219 -8767.2255859 -4342.0708008 -4607.5224609 -588.54876709 -3848.7565918
          -954.92364502 7106.8081055 6483.3291016 8186.2314453 653.78051758 -1598.4367676
          -1060.7304688 1908.7529297 -7737.8916016 -6727.0507812 -9309.7568359 -2667.7700195
          -8387.3076172 -1206.6604004 3104.3100586 5828.5039062 8039.1669922 -315.40588379
          -3730.3522949 2189.588623 -1874.5911865 -4761.6523438 -5731.3125 -10358.014648
          -5379.0737305 -11210.280273 -5811.0332031 3458.6645508 7020.1899414 8534.2285156
          5210.3779297 1972.0114746 2210.6665039 2610.5048828 0 0
          0 0 0 0 0 0
          0 0 0 0 0
        </DataArray>
        <DataArray type="Float32" Name="uy" format="ascii" RangeMin="-17890.912109" RangeMax="25410.435547">
          4540.4970703 -1024.7039795 4151.5366211 -582.10028076 -2227.798584 7732.6665039
          -4686.9067383 1398.3254395 662.77294922 -7268.4765625 18044.689453 3324.4182129
          5198.5625 -8965.6855469 2435.7739258 1255.8662109 -2481.2373047 2353.2595215
          4109.6347656 8930.3554688 14479.200195 -8144.5932617 -9618.6298828 -352.49325562
          -758.88647461 -391.09448242 -14638.467773 5387.8076172 8425.9355469 -3754.4487305
          6229.3852539 12899.427734 -1035.8040771 1103.6081543 -1147.9554443 1747.2203369
          1354.901001 2988.4157715 -2639.3896484 4878.043457 3591.2041016 -5389.4223633
          10655.945312 -5346.9638672 -5423.625 -3646.5866699 -8507.2001953 320.87945557
          -5962.8266602 -1877.463501 -3898.7390137 3069.4279785 622.36572266 -3035.7392578
          -2053.0598145 5832.8701172 2203.1203613 579.61975098 -740.52893066 3360.5419922
          -4103.3442383 129.70195007 8627.6220703 -993.30334473 -41.683452606 -848.61773682
          1632.5718994 -2964.6777344 -1818.5410156 -442.38110352 3185.7258301 -767.45715332
          -822.65887451 -3410.8757324 5901.2036133 -3256.9467773 -5123.144043 -1219.7723389
          -8752.0322266 3306.5678711 -4157.6191406 -4918.5810547 972.45635986 -3037.1303711
          -1021.7706299 -7146.8652344 246.47351074 -5374.5078125 211.17579651 -2436.5109863
          488.78741455 -2298.1401367 -10882.899414 -2450.3151855 4102.3779297 -881.9041748
          2914.4892578 -1864.4396973 4013.5732422 234.83631897 901.33673096 -2091.9736328
          -3777.6645508 -4665.3012695 504.7991333 718.07891846 426.62088013 114.47168732
          -912.47802734 -100.98956299 11611.064453 -1251.4710693 88.074661255 105.56649017
          11209.029297 1694.0134277 -3780.7062988 11471.885742 -6898.4116211 -603.88458252
          929.92498779 703.19067383 -1891.1812744 1133.7344971 3455.1982422 -22.043178558
          3553.9245605 1434.6671143 658.21343994 -967.28338623 5031.9125977 760.23205566
          -4167.2573242 6631.7021484 -545.14801025 -304.85986328 2070.7800293 323.05386353
          -1209.6494141 -1692.6899414 736.49163818 138.46435547 -5286.9013672 80.041763306
          -3775.7832031 -872.94561768 7988.9848633 2384.8833008 -11419.197266 2151.4069824
          -7180.730957 -875.88171387 -1149.4476318 -2298.8669434 -3178.9150391 43.439556122
          452.62490845 1504.2358398 -3353.0593262 -395.07528687 -2314.7380371 6104.9365234
          -58.589256287 5394.4643555 -3130.782959 7785.2294922 1298.404541 436.96228027
          -4671.7148438 -4597.0268555 -2055.9831543 807.76080322 251.76463318 4464.4599609
          4022.0236816 2201.8989258 -3161.1259766 2456.8381348 -6993.4331055 1767.6188965
          -5147.2929688 12074.950195 4499.2753906 2416.3876953 -7283.7006836 -459.49935913
          538.14416504 -1827.5911865 -775.36737061 4191.7333984 7020.4394531 -4700.8613281
          2921.2741699 3848.1643066 8559.7246094 2222.8779297 -8253.2304688 6627.4677734
          637.34320068 6855.2895508 2767.5551758 -1336.8195801 4045.359375 -2095.4675293
          -486.37805176 -353.65951538 1240.4901123 -2812.876709 4450.2363281 -368.38238525
          2734.9772949 -34.547927856 257.05233765 -635.49511719 -838.13861084 3688.2873535
          5341.7250977 1317.0637207 711.29229736 -856.7041626 4939.109375 -1228.9937744
          -10637.129883 6258.3413086 -9531.6181641 -8535.1308594 -9071.7705078 -5990.3388672
          2032.8851318 -3761.0085449 -954.1776123 -3253.6682129 -124.46634674 -726.67614746
          -1633.8135986 579.64196777 3910.8603516 256.60198975 -4641.7416992 3916.4733887
          -7017.0834961 -5086.6801758 -2490.552002 -4914.9291992 -2116.6398926 2301.6818848
          -316.39361572 -1587.354248 -5886.4614258 -361.22137451 1080.1551514 898.45526123
          3849.4709473 2201.7297363 -1624.6456299 3062.3327637 -1887.6690674 -611.13763428
          -6502.1870117 -1725.1120605 3863.4445801 861.43334961 2621.2443848 36.949085236
          -380.12695312 3802.2353516 2049.3728027 2844.0712891 -2819.9892578 4547.6411133
          6571.2797852 2239.9123535 3495.0124512 -2567.5319824 -4018.4074707 -2539.8894043
          3145.2180176 -7031.5625 1613.0900879 512.44897461 1825.5710449 3321.5029297
          6519.6523438 -1976.9731445 -225.80526733 -1904.7700195 2631.0686035 -3777.4509277
          10766.413086 -6174.703125 -7879.4838867 -3942.6623535 -6888.9741211 -5465.0795898
          3617.4355469 2738.769043 4055.5883789 3064.1811523 -4900.7675781 -1873.317749
          -2971.9768066 -1338.8041992 3044.0825195 -1730.8139648 6028.2714844 -3100.473877
          1592.123291 -3223.4064941 2706.4543457 -6375.3623047 -3063.7995605 550.66247559
          6795.8676758 1971.6328125 -2419.0251465 3615.798584 460.31518555 -434.67370605
          3762.5266113 -7517.5722656 2347.513916 -1000.607666 6035.684082 2336.1430664
          -1232.9206543 926.74517822 -4055.3876953 1283.6328125 3510.9765625 -2833.5678711
          3708.0976562 -104.30024719 1689.385498 -1206.9986572 -2167.9804688 -2616.7961426
          765.40734863 1740.5455322 2063.6157227 1639.013916 -2258.5593262 4771.847168
          315.79266357 2270.0080566 -16.75292778 -2214.5644531 -590.84832764 1588.6257324
          -1516.0227051 2080.628418 4415.5927734 -5065.3027344 607.29779053 -762.43536377
          16852.292969 1245.8618164 -15471.135742 4055.9160156 -3737.3847656 -2599.251709
          -4435.7109375 -5565.1362305 955.44561768 -2269.1809082 -366.62200928 2594.515625
          -2202.3725586 1375.9831543 -2684.1677246 4191.3779297 6383.7265625 846.3828125
          -620.253479 -937.67321777 1170.5281982 -1458.4265137 3995.2397461 -8114.4995117
          598.69042969 2164.2145996 -3927.7858887 -2658.154541 -3447.6303711 -5289.9672852
          -1324.1818848 -6346.3857422 -2189.4689941 -512.79949951 1917.6741943 5450.7763672
          -7042.9638672 -5940.8574219 -900.68041992 -3732.9570312 -513.37921143 -1647.8300781
          5972.9057617 8727.4775391 989.36328125 5856.3496094 219.02601624 -4240.0874023
          -908.2789917 -350.91879272 -3126.2875977 -8806.5517578 3123.6645508 1000.4586792
          824.5824585 789.28363037 1265.248291 -3057.5305176 269.28887939 -2123.7412109
          -10.326782227 2436.3178711 1786.8565674 -5051.8662109 764.57525635 5218.3061523
          -2469.3422852 -2347.1633301 1444.8675537 3247.2307129 5134.2866211 3625.7119141
          3599.0195312 -4029.9868164 888.97808838 2198.9626465 3435.3625488 2516.2978516
          2958.6052246 -5756.605957 -2062.9660645 -4155.8574219 -1931.4923096 -714.00292969
          -612.12921143 5827.7041016 649.79705811 8944.0615234 -242.42658997 -3003.8359375
          -4993.3012695 -6044.699707 128.12141418 4069.75 3260.8330078 -3518.0073242
          2520.262207 -5915.8925781 -2906.6916504 5770.1108398 -6358.3676758 9697.3017578
          3013.7253418 16542.515625 -1012.5009155 -3814.9755859 -1192.6706543 -4739.9667969
          2685.5297852 5806.2041016 1340.5075684 2417.6220703 -2946.5292969 -9849.7802734
          -1618.4238281 989.6317749 -7140.5698242 6803.0161133 -106.28403473 675.61010742
          -599.21380615 -4137.7480469 -4232.1064453 -5252.7768555 2170.8361816 1021.3348999
          -2393.1152344 -852.73394775 2187.1816406 -1051.0318604 -517.73242188 3143.2131348
          -3078.4362793 -3737.9418945 -3470.9543457 -12213.614258 -1196.2352295 3046.9040527
          -1993.4243164 3086.402832 -301.89160156 -915.36053467 -2059.5566406 2989.0422363
          7353.4316406 4151.8354492 1901.8406982 2517.8544922 1855.8728027 286.17123413
          -151.8162384 -3159.5585938 1138.8162842 8853.6552734 -4315.6660156 -467.59182739
          1029.6085205 -1987.9366455 1612.9625244 4773.6542969 3565.0134277 3882.7248535
          -4109.6064453 -5217.8481445 148.17723083 7121.5253906 1069.9835205 -5994.1723633
          3947.2614746 4331.7783203 -6649.9956055 3811.6721191 -1269.7562256 2701.1342773
          547.21032715 -917.38873291 686.44433594 7691.0527344 -1417.0672607 -5563.6025391
          -677.50012207 12328.668945 -2915.7285156 -4700.8505859 1466.0493164 -3440.3911133
          -8849.8837891 4080.369873 -1776.9160156 2845.0827637 -594.72998047 -489.05578613
          3577.9802246 16004.324219 81.823265076 -4257.3666992 6080.5410156 155.68688965
          -799.16931152 464.3399353 -37.800518036 -3128.7321777 -1544.09729 1205.4559326
          -4972.7431641 -2204.8422852 -4406.6123047 -3653.8193359 4814.4614258 8868.7138672
          1597.1578369 -45.592605591 6911.7905273 -7638.6787109 868.98608398 5946.5410156
          220.55917358 -2091.328125 4504.7900391 -33.329135895 -5481.6821289 -8993.328125
          -3925.661377 465.15054321 -2474.4711914 -738.04437256 -1941.8422852 2665.9123535
          -2460.5187988 2854.9125977 194.53048706 5501.0458984 -425.42974854 1932.7181396
          -408.503479 2400.8271484 -5151.1464844 -4451.1918945 -434.61782837 2443.348877
          -1555.3895264 869.00463867 -45.45495224 -1599.1037598 -3520.0993652 4338.6425781
          -1548.3370361 2916.3078613 -1694.1608887 3355.9772949 -15832.236328 344.09332275
          -7242.621582 1324.2563477 439.70675659 3631.7302246 1228.5887451 -3581.5878906
          545.33880615 82.52771759 -2590.5732422 3579.9086914 -4485.5551758 576.20507812
          -762.05493164 624.86456299 -14921.806641 -3764.4538574 -5665.1870117 1045.8875732
          1445.7054443 4731.2016602 1726.3284912 -3661.0131836 1392.4230957 -8301.5537109
          1897.831543 -2821.262207 497.27587891 4550.2758789 5725.6640625 -644.84326172
          470.34164429 -10098.533203 3180.3859863 1448.3531494 2050.666748 369.24490356
          2966.2282715 247.35829163 1026.1054688 -12903.170898 9685.1513672 -4993.2939453
          4882.3256836 4354.2275391 6526.737793 9929.7763672 11090.417969 -7638.9692383
          6190.3383789 895.63293457 4817.8393555 3858.0292969 1291.6317139 -6666.4799805
          1543.9172363 -10229.615234 4732.3901367 -7525.3491211 2716.338623 1307.1833496
          918.97357178 1222.1292725 4276.1049805 -7298.9023438 4630.1899414 -4283.3022461
          1164.9741211 1415.7142334 6.506585598 -184.98930359 971.05187988 -3532.9069824
          -83.816665649 -2104.1447754 710.1350708 -1113.8430176 -370.28204346 -1163.3041992
          1165.6821289 -333.77792358 903.90588379 -1412.0214844 1275.8500977 -806.12652588
          6629.519043 1323.0930176 5294.3139648 4920.1665039 4501.1606445 -491.31781006
          -6648.6176758 -226.83137512 -4550.7900391 -613.199646 -123.44438934 -2670.3676758
          -1045.1876221 194.85913086 -717.39483643 5458.1777344 -2480.6669922 -6140.5400391
          -2002.4595947 -6345.5029297 3775.2827148 -2213.5373535 159.85531616 -3984.0656738
          -9750.6044922 -8.1765727997 -2580.838623 -830.08062744 410.33230591 -7741.4838867
          -3715.6203613 -14354.125977 10257.00293 5937.640625 -9085.9316406 -6172.1098633
          13081.571289 -3844.7145996 10785.198242 3554.3195801 -8471.0048828 -1245.2625732
          25410.435547 887.86022949 -7393.4580078 10866.852539 6173.4511719 -4481.4624023
          4038.1452637 7920.4780273 -13836.804688 6345.7670898 -2220.2150879 5613.1186523
          5721.890625 -1576.0123291 4764.1669922 10009.367188 -185.08592224 321.51116943
          3442.1672363 3715.6193848 -4633.2363281 9018.7304688 -2083.7009277 -3122.3950195
          7949.0644531 -709.82440186 -10677.385742 5424.7597656 2647.7382812 -8717.9960938
          -10047.094727 2654.3730469 -5646.409668 -12879.915039 19170.683594 -10273.493164
          -2393.8029785 -8681.4033203 -2779.7629395 5723.6376953 -2645.7075195 -17890.912109
          5661.105957 -4349.8310547 -5453.097168 -10433.022461 0 0
          0 0 0 0 0 0
          0 0 0 0 0
        </DataArray>
        <DataArray type="Float32" Name="uz" format="ascii" RangeMin="-10972.469727" RangeMax="12504.288086">
          8364.2519531 -5514.690918 -2109.010498 -933.71173096 -1496.0136719 -7107.9130859
          -1058.0083008 2674.0876465 -1323.3641357 1262.0395508 1551.90625 906.40753174
          -1097.2731934 -1232.7156982 2593.1813965 4021.6079102 -1798.7835693 1975.1647949
          3934.7805176 2120.6972656 4130.8115234 -722.33453369 -2411.9467773 -1096.5333252
          -85.106864929 1779.59729 4060.2348633 1242.8974609 4801.9702148 2656.6687012
          -1991.6263428 -1220.0012207 4909.3613281 2144.8947754 -2967.2392578 -742.93981934
          -3382.8815918 7531.1210938 2230.9731445 4348.2612305 602.40087891 -3934.8691406
          -2507.4296875 2484.5256348 -2490.7319336 4148.9189453 -874.39801025 4619.5756836
          701.12335205 995.57098389 -260.1734314 4894.7753906 3197.2949219 1799.6658936
          3431.2438965 518.63415527 219.10211182 3345.359375 1877.2695312 1379.7380371
          5111.6757812 1911.4934082 2122.1682129 -36.288913727 5645.9272461 496.26080322
          1870.4219971 3041.107666 855.80871582 934.23571777 -2117.3967285 1929.4399414
          -1092.8206787 -1655.4609375 1499.5876465 -1211.8773193 2681.3154297 -1248.395752
          -256.0369873 -132.33204651 -201.68574524 -3244.2158203 -1849.310791 -481.93850708
          -41.85881424 -1654.8571777 -2267.8876953 -1527.2371826 -3392.9726562 -3291.6872559
          -975.69232178 -2897.0227051 -2302.0649414 -3093.2817383 -3028.574707 331.90658569
          -7203.5361328 -2758.348877 112.95011139 -4280.4755859 -1304.7954102 -7608.4482422
          414.78683472 -6790.6835938 -5694.3632812 -4440.5371094 -1245.9638672 -336.48623657
          -1564.8570557 -74.379669189 -1568.6320801 119.35080719 -1176.5216064 2133.189209
          1630.7908936 224.77532959 -181.08726501 -3666.7741699 596.24224854 -2530.6374512
          -1848.9821777 -1800.6434326 -378.83169556 -1203.0826416 -6614.1362305 -1338.8690186
          -3313.3566895 270.28710938 1305.0578613 4816.6992188 -1312.0084229 3598.8381348
          -3107.1835938 787.86431885 402.14764404 1613.7088623 -81.366874695 1223.5799561
          -1971.7224121 1084.0936279 -5923.3193359 -2305.3342285 302.19909668 2498.4106445
          1156.6845703 3824.9707031 -3070.8061523 2837.3266602 -2084.8937988 -1443.0998535
          -573.41345215 -640.64752197 -1502.4299316 1502.2874756 -5530.168457 691.3861084
          1255.3707275 -527.57269287 1926.4869385 2162.8903809 3705.8852539 4873.2832031
          6147.9599609 1854.2515869 4269.0473633 -1698.9735107 2460.010498 -1866.5093994
          -1793.8033447 757.03271484 -296.24630737 -1825.6375732 1122.3818359 -835.10961914
          -1023.7670288 -1801.2940674 3863.2836914 4150.3735352 6350.9204102 1376.6896973
          2210.5625 11.763744354 2429.7636719 -642.22821045 -789.04919434 -1298.8208008
          910.55804443 1676.2148438 3534.6777344 1981.5084229 1075.6270752 -1032.2409668
          3798.8718262 -672.41333008 1080.2498779 1483.4058838 1969.989624 4002.5014648
          -2554.7722168 2142.442627 829.5168457 -952.78930664 -782.27349854 1973.4698486
          -641.04351807 349.34484863 3152.3137207 1734.2236328 -1229.0634766 -3616.5356445
          -6331.0874023 -82.234924316 -1028.0704346 3035.2773438 -3782.9035645 1032.7626953
          2032.3095703 2667.6464844 -2310.5187988 5234.9702148 3306.5112305 3405.0270996
          4677.6367188 3090.7009277 -5232.5083008 -3631.3017578 -5238.7529297 -1406.8811035
          -483.37042236 -339.85064697 -1833.7974854 -1282.5811768 1186.0802002 3576.6494141
          1929.673584 1677.8265381 -391.65185547 2996.2641602 -4250.5820312 -1169.0976562
          -9080.5605469 -3018.1247559 -3407.4338379 -2071.786377 -2591.6826172 -5048.1469727
          -457.76208496 -2527.1762695 -582.199646 -1718.1739502 2250.0324707 2185.3840332
          4455.8203125 861.53808594 1552.9764404 389.61911011 -1499.8455811 3637.1306152
          6656.9550781 -1448.7945557 3232.1513672 -2874.0891113 4104.0522461 -2922.8496094
          -494.16943359 -11.553355217 2730.8491211 612.41363525 3429.4804688 1502.1677246
          540.1706543 -687.01147461 1358.7940674 1903.5325928 3530.5112305 601.62255859
          1265.243042 -422.33947754 1133.1499023 -793.83959961 86.310966492 -490.93222046
          1498.359375 -3099.6882324 -3998.3010254 -2360.1567383 -5824.4462891 -675.51513672
          1880.4212646 1078.7796631 -2150.807373 754.07427979 -4530.3037109 -2923.7321777
          -788.70074463 -689.01989746 -1637.2072754 -2106.8469238 -3213.347168 -63.121665955
          -2445.4399414 -416.92019653 -3146.7805176 -723.27026367 1789.3588867 3069.9890137
          1588.642334 2692.8146973 -832.62518311 -4046.7727051 -472.3609314 925.34857178
          -2662.9396973 -2802.0297852 -1850.4433594 1598.0133057 4807.8041992 3713.7624512
          -4608.3862305 -1528.5855713 2468.8981934 3821.7529297 3731.5612793 2536.0029297
          -442.58999634 -5942.8974609 2601.8388672 256.20574951 -1673.9384766 -3602.579834
          4755.5009766 747.75506592 2806.907959 1687.6417236 -1533.3493652 -413.1053772
          -200.23988342 274.11721802 887.19439697 -5.21378088 -1151.1641846 -3430.6203613
          908.03521729 -1024.9642334 -861.60070801 -1113.9213867 2786.2409668 -5545.4404297
          -6753.9448242 2603.5187988 -6036.0722656 -6271.8134766 -495.91067505 -1625.9986572
          1355.0023193 2818.8027344 -2272.9916992 -3715.314209 -1438.2053223 2555.0524902
          3225.4768066 -4350.5073242 -1010.5682373 -1938.1938477 -2742.9824219 6261.9375
          -5244.331543 5878.7202148 -252.46791077 -1590.6125488 -728.12078857 -2594.5661621
          3260.1809082 2433.6574707 5974.7592773 3061.947998 -7220.0478516 3512.2058105
          -4705.199707 -239.82044983 -2475.996582 -2008.2980957 -2731.8796387 3463.7316895
          1737.8564453 3874.7749023 -421.93560791 2250.7092285 -4146.0493164 3767.168457