<VTKFile type="UnstructuredGrid" version="1.0" byte_order="LittleEndian" header_type="UInt64">
  <UnstructuredGrid>
    <Piece NumberOfPoints="791" NumberOfCells="973">
      <PointData>
        <DataArray type="Float32" Name="ux" format="ascii" RangeMin="-1.8651854992" RangeMax="1.5486344099">
          -1.1770815849 -1.2039499283 -0.35813638568 1.240250349 0.86522436142 0.017687287182
          0.74231719971 -0.35361793637 0.39993342757 -0.47659006715 0.36437287927 -0.47827169299
          0.077044919133 0.40430566669 0.17968004942 -0.75564348698 -0.20333120227 -0.057095263153
          -0.53194904327 0.12795867026 0.0087559502572 0.12805266678 0.75924634933 -0.95160514116
          1.1487677097 -0.69971400499 -0.36861276627 -0.59960055351 -0.13168644905 -0.20549336076
          -0.014344111085 0.068930722773 -0.12855790555 0.44437873363 -0.58234113455 0.26897257566
          0.48186099529 0.40674313903 -0.68921345472 -0.52312320471 -0.61130225658 -0.83788639307
          0.5620238781 0.036634568125 -0.82882744074 -0.37988489866 -0.021077115089 0.4873458147
          -0.074830509722 0.42478176951 -0.73517662287 -0.11830469966 -0.27329057455 0.67860209942
          -0.4131539762 -0.090176656842 0.73988455534 0.41939711571 -0.60507297516 -0.60255473852
          -0.25497713685 -0.02339694649 -0.43400982022 -0.16166807711 -0.52083939314 -0.51545780897
          -0.36639365554 -0.89527630806 0.0028003598563 0.31101348996 0.034119118005 -0.55426329374
          -0.061644423753 -0.28639414907 -0.19607187808 -0.83611041307 -0.25265091658 1.0660667419
          -0.12776678801 -0.36441850662 0.23001590371 0.59255599976 0.02860484086 -0.34455528855
          0.32728075981 0.25810420513 -0.53852623701 -1.0254141092 0.51641786098 -0.37927573919
          -0.43292209506 0.070647604764 1.0696043968 0.42025190592 -0.260930866 -0.72977143526
          -0.31469082832 0.31226181984 0.96625983715 -0.34146693349 -0.92198699713 0.018999921158
          0.69464021921 0.71541744471 0.19464489818 0.21191905439 -0.42445042729 1.0415648222
          -0.72298431396 -0.47567820549 0.21593105793 0.092717193067 -0.41937279701 -0.24800692499
          -0.22781689465 -1.3590846062 0.53093743324 0.30805364251 0.36462301016 0.24715553224
          0.19957512617 0.32212769985 0.15638493001 -0.013108051382 0.70365226269 0.88828980923
          0.8453618288 -0.67211729288 -0.060876186937 0.22391800582 0.37586247921 -0.0027965835761
          0.46961206198 -1.0288612843 0.20932669938 -0.15867072344 -0.5643928051 0.18381255865
          0.92139589787 -0.51423114538 0.93319743872 -0.44195377827 0.90067082644 0.10901352018
          -0.45089706779 0.81237894297 0.17721948028 0.16958761215 -0.12880901992 -0.44244477153
          -1.1463583708 0.2995159626 0.73435842991 -0.22601947188 -0.43461719155 0.086241476238
          0.030791098252 0.26534417272 0.84027510881 0.37070271373 -1.0171329975 -1.1149482727
          -0.89622479677 0.027206037194 0.13481371105 0.39226311445 0.65209132433 -0.89965170622
          -0.24450385571 0.056132290512 0.40596374869 -0.50563544035 0.40203022957 -0.16456206143
          -0.74094575644 -0.78589308262 -0.55082005262 0.55099254847 0.057941660285 -0.033672533929
          0.16917455196 -0.54610198736 1.5486344099 -0.031869418919 -1.1639831066 0.024628963321
          -0.20201689005 0.78055012226 0.43438056111 0.99802786112 -0.23192408681 0.75905442238
          0.10086043924 0.25340071321 -0.50206977129 -0.37505125999 0.93702036142 0.89566117525
          0.4595246315 -0.14872404933 0.76934868097 -0.014715495519 -0.46223166585 -0.42411640286
          -0.13144390285 0.098685570061 -1.6335588694 -0.36063081026 0.56109201908 -1.1502972841
          -0.33627590537 0.040762461722 0.14373411238 0.19891573489 0.48488402367 0.35234576464
          0.40159988403 -0.99417507648 0.080746941268 1.2725793123 -0.26462492347 0.34332290292
          -1.1457862854 -0.50438374281 -0.73328310251 -0.51429766417 -0.040477033705 -0.13130185008
          -0.69035762548 -0.73853540421 0.74807935953 -0.3355692625 -1.034480691 -0.3525313735
          -0.15212489665 0.64727801085 -0.26653683186 -0.18739500642 -0.49120777845 -0.76624464989
          -0.61233741045 -0.088133640587 1.2753263712 0.33885276318 0.57849520445 1.3438395262
          0.54153388739 -0.68726146221 -0.29204526544 0.7937669158 -1.2254257202 -1.196532011
          -0.40698009729 -0.11008667946 -1.3608125448 -0.067367710173 0.20337834954 0.019381314516
          -0.86152327061 -0.24729369581 0.5160664916 0.66789507866 0.067187748849 0.6307284236
          0.87892228365 0.35676774383 0.039246506989 0.038903664798 -0.010335828178 -0.019696397707
          0.43957412243 -0.52975463867 0.14522881806 -0.028537174687 -0.51848644018 0.17232693732
          0.76499682665 -0.91573905945 0.59361582994 -0.93706488609 0.087492905557 0.4300917387
          0.5338050127 0.15618833899 0.1790574342 -0.15684472024 0.97953373194 0.19439265132
          -0.031475897878 0.096551895142 0.9184165597 -0.19653840363 0.3228726387 0.1414526403
          -0.09607513994 -0.56084430218 -0.025746868923 -0.58024972677 -0.24614135921 -0.157456249
          0.1475212872 -0.38949355483 -0.59401214123 0.59625548124 0.17132863402 -0.7431307435
          0.94881665707 -0.36679443717 0.75014168024 -0.57286918163 0.53667628765 -0.20709128678
          -0.29150345922 -0.072244055569 0.56689494848 0.16082473099 -0.5471227169 0.11090282351
          0.46431735158 0.17282225192 0.37952116132 0.65889000893 1.0006177425 -0.19970683753
          0.065959997475 0.5913913846 -0.89878702164 0.045544799417 0.22910903394 0.3127028048
          -0.21260283887 0.99136847258 0.38130879402 0.60632324219 -0.19383870065 -0.45770791173
          -0.58757454157 -0.5591635108 0.50037699938 -0.54412639141 -0.66572189331 0.039540834725
          0.53606230021 -0.62145847082 -0.23719972372 -0.69015318155 0.64491128922 0.75598222017
          -0.95047146082 0.046896375716 -0.027590930462 0.50169533491 -0.2105807811 -0.18643787503
          -1.0520373583 -0.33349078894 -0.25433370471 -1.8651854992 -0.63239705563 0.31698489189
          -1.391802907 -0.69175928831 -0.91039949656 -0.40406847 0.49509680271 0.17352646589
          0.37355431914 0.083602741361 0.52419382334 -0.58222693205 -0.063526898623 0.24431887269
          -1.2672203779 0.43697196245 -0.13488802314 -0.12166579813 -0.44415983558 -0.75531625748
          -0.76198643446 0.32870268822 0.60282832384 -0.72186356783 -0.1330255717 0.18927317858
          0.37645533681 1.0228557587 -0.88963121176 0.66194570065 0.93618804216 0.84131276608
          -0.61466252804 -0.21461693943 -0.53066909313 -0.012549758889 -0.60015285015 -0.045749608427
          -1.3653026819 -0.059365421534 0.66757667065 0.3872307539 0.96416163445 0.91399306059
          0.6363696456 1.125285387 -0.014128599316 -0.77771031857 -0.87196731567 0.21905463934
          0.54077941179 0.22134596109 0.67673677206 -0.66566491127 0.12177541852 -1.0329735279
          -0.46475434303 -0.64563655853 -0.69064646959 -1.8365322351 -0.064010903239 -0.12489263713
          0.13601005077 -1.0655767918 -0.33188402653 -0.35470810533 0.17986276746 0.43826726079
          -0.49154272676 -0.61337727308 0.25456148386 -0.50925028324 1.1192902327 0.8395794034
          0.36367797852 0.51051485538 -0.48276051879 0.30214092135 -0.069501563907 0.11176619679
          -0.12406247109 -1.4078483582 0.50693303347 -0.71198320389 0.24915862083 -0.44959741831
          0.22769388556 -0.95806485415 0.24962233007 -0.37729772925 1.3395645618 0.8127040863
          1.123365283 -0.068906709552 0.58064043522 0.024966593832 0.49820280075 -0.094179689884
          0.95731389523 0.76797670126 -0.011983732693 0.25407806039 -0.84748506546 -0.0013934777817
          -0.082036934793 -1.0962045193 0.3727273345 0.1450522989 -0.2314773351 -0.21437072754
          -0.52458763123 -0.082438528538 0.17194493115 0.56670230627 0.49571460485 0.1236911118
          0.73284387589 0.11116363108 -0.764760077 -0.99309265614 0.075329013169 -0.86270600557
          -0.31624343991 0.96431469917 -0.76770973206 -0.39305919409 0.29596328735 0.22210553288
          -0.78643131256 -0.31568610668 -0.64562869072 -0.23659169674 -0.72806382179 -0.8376981616
          -0.96699720621 -1.1634879112 -0.25068262219 0.23268769681 0.18317091465 -0.43878048658
          -0.17438960075 0.40572550893 3.4892062104e-05 0.22448630631 0.05637761578 0.21316611767
          -0.029391916469 0.035176668316 0.14643424749 0.37987676263 -0.82541173697 -0.35871484876
          -0.10442444682 -0.012392094359 -0.17745575309 -0.49816724658 0.19845847785 -0.31458008289
          -0.75176095963 0.96194058657 0.41138073802 0.24654087424 0.040474247187 -0.19890016317
          0.86988806725 0.61877882481 0.91395419836 -0.0954150334 -0.54609704018 -0.40814390779
          -0.48530092835 -0.19404895604 -1.1460032463 0.59925454855 0.26022541523 -0.11404362321
          0.53867250681 -0.093237914145 0.43163046241 -0.62631219625 0.32551595569 0.11564704776
          0.58958417177 0.48705565929 -0.096274256706 0.16222310066 0.18492406607 -1.3794800043
          -0.9271736145 -0.52568513155 -0.27054396272 0.52186262608 0.47176960111 0.34209096432
          0.12707671523 -0.48233819008 -0.43276569247 -0.59229874611 -0.55461215973 -0.75895261765
          -0.53598284721 -0.51431119442 0.17231337726 -0.56241428852 0.12564589083 0.48513871431
          1.209463954 0.37530171871 -0.19244383276 -0.53664988279 -0.90963512659 -0.25404244661
          0.31765714288 0.62461823225 -0.97203993797 -0.10360367596 0.24757812917 -0.027087468654
          0.44933700562 -0.64793199301 0.39640370011 -0.39300972223 -0.39552769065 0.59404212236
          0.042050193995 0.35494875908 -0.33165299892 -0.01850402914 0.66973972321 1.4135614634
          0.11478924751 0.61222338676 0.20401248336 0.9487272501 -1.1335048676 -0.23963907361
          0.87690138817 1.3872089386 0.23511266708 -0.53540343046 0.73453980684 0.34179967642
          0.44411981106 -0.47776159644 -0.31821462512 0.42108586431 -0.35417500138 0.64361745119
          -0.73494029045 1.026064992 -0.41629874706 0.024258231744 0.29941418767 0.064020864666
          -1.0796803236 0.35699826479 -0.94336766005 -0.4938954711 0.67711663246 -0.049293491989
          0.37169003487 0.21815483272 -0.052625063807 -0.96729892492 -0.26037076116 0.61779159307
          -0.049437236041 0.35210254788 0.27714407444 -0.009382260032 0.51333862543 0.32691392303
          0.16303390265 0.16676543653 -1.0306315422 0.44995838404 0.1274394542 -0.15259802341
          0.74760597944 0.082761839032 -0.00039983671741 0.35732841492 -0.27076244354 0.43645089865
          -0.39026242495 -0.25523075461 -0.55145442486 0.37948006392 0.3890247941 0.097739078104
          0.64262276888 -0.0025598590728 0.097645230591 -0.2044608295 0.69426566362 0.20698933303
          0.4087459445 0.12370391935 -0.70756369829 0.80763566494 -0.59509605169 -0.20599670708
          -1.0251353979 -1.3168193102 -0.30686593056 0.049071025103 0.31597104669 -0.58663207293
          -1.4477014542 -0.28249394894 0.024665411562 0.63128632307 -0.78434300423 0.32561254501
          0.31387352943 0.57930856943 -0.1895198822 0.37088242173 -0.069592244923 -0.026463473216
          -0.2080258131 0.6231944561 0.61872184277 0.12676259875 0.2843490839 -0.47618919611
          0.31357711554 -0.26596415043 0.27247673273 0.39130559564 -1.371496439 0.00028323181323
          -0.43562886119 -1.0418254137 0.046114776284 0.68992376328 0.7722171545 -0.67858242989
          0.82456570864 -0.66308915615 0.36169999838 0.48156315088 -0.0034845906775 -0.19968208671
          0.39199239016 0.20071031153 0.3148778975 0.26979792118 -0.23163665831 -1.0610589981
          0.73027664423 0.12126747519 0.077416189015 -0.68588578701 1.0198241472 0.21655775607
          -0.18731938303 0.068526238203 -0.51232498884 -0.55261659622 0.5032454133 0.053454760462
          -0.21129485965 0.32032260299 -0.62346482277 0.38251575828 -0.72974288464 0.274551332
          0.22857782245 0.2833878696 0.95303189754 -0.42652061582 0.10347671062 -0.31066575646
          -1.1254829168 0.90911531448 0.64045131207 -0.4292602241 -0.89229780436 -0.14271052182
          0.16516703367 0.67206597328 1.2023646832 -0.23643667996 -0.11809483171 0.052974630147
          -0.243404001 0.15976962447 1.1304587126 -1.1522583961 0.16447024047 0.15818965435
          -0.76359188557 0.86384779215 -0.57420301437 0.17769519985 1.197204113 0.015087673441
          -0.41196206212 -0.30609369278 0.21410040557 0.5203436017 0.32418003678 -0.8883523345
          0.42837265134 0.54733037949 -0.41481563449 -0.79407894611 0.046456135809 -0.11602967232
          -0.032007660717 -0.22456236184 1.2770349979 -0.095320977271 0.11431549489 1.269084692
          -0.47157210112 -1.0245981216 -0.70760005713 0.28414732218 0 0
          0 0 0 0 0 0
          0 0 0 0 0
        </DataArray>
        <DataArray type="Float32" Name="uy" format="ascii" RangeMin="-1.7173902988" RangeMax="1.5915309191">
          -0.73212325573 -0.12635134161 -0.61307370663 0.43171513081 0.85079222918 0.08567918092
          0.05899585411 0.2372097373 -0.76699185371 -0.10003548861 -0.96598666906 0.2036075592
          -0.51351445913 -0.41402739286 -0.21387584507 0.82910913229 0.1948158741 -0.79182517529
          0.075653254986 0.85372442007 -1.0803464651 0.50313878059 0.2561430037 -0.16471812129
          0.030496513471 1.0887002945 -0.21942046285 -0.56523156166 0.12742446363 -0.16970171034
          -0.071450591087 1.4509876966 0.51563256979 -0.61441552639 0.42184406519 0.31266915798
          0.56110101938 -0.078691154718 -0.29720944166 -0.35714372993 0.85032296181 -0.9105039835
          0.4578486383 0.83000016212 -0.70490735769 -0.31604349613 0.09621244669 -0.19205121696
          -0.2992413044 -1.5374575853 -0.10572253168 0.16725853086 0.42497864366 0.081994190812
          0.12851203978 0.21392437816 -0.052808366716 -0.53799766302 0.036140944809 0.36969271302
          0.56285321712 0.15135347843 0.27251470089 0.49346369505 0.67444258928 1.0774619579
          0.0032415708993 0.36272099614 -0.27726829052 0.094263717532 -0.6877220273 -0.87551194429
          0.63452535868 -0.23407176137 -0.86272394657 -0.61593735218 0.091106049716 -0.53905510902
          0.64877688885 0.41959041357 -1.019010067 -1.115983963 -0.41789767146 0.49464863539
          0.88716977835 -1.2462925911 -0.54953444004 -0.61936962605 -1.6564631462 -0.94078075886
          -0.4851770103 0.51494854689 0.053803086281 0.14382080734 0.51158136129 0.44602689147
          -0.12315526605 0.15841405094 -0.71148478985 -0.19988250732 -0.33468812704 0.59828555584
          -0.52562022209 0.9082301259 1.0035951138 0.97686988115 -0.13213564456 -0.487649858
          -0.15491786599 -0.5133908987 -1.1871678829 0.62367105484 -0.71329081059 0.088101699948
          0.22863985598 0.27766257524 -0.20049010217 -0.85493338108 0.78277170658 -0.43320474029
          0.7293394804 0.62339055538 -1.6549850702 -0.5522800684 -0.10344380885 1.1481698751
          -0.71198886633 -0.24889104068 0.8534412384 -1.1382077932 0.24647137523 0.24663521349
          0.77045798302 0.24563497305 -0.17741174996 0.019693022594 -0.08372142911 0.86327326298
          -0.5742200017 -0.1608440876 0.932987988 -0.58203697205 -0.64023560286 -0.30315598845
          -0.25929152966 0.36757940054 -0.02760566771 0.14859052002 0.11906211078 1.5577375889
          0.17032162845 0.026219500229 0.69552880526 0.12801970541 1.0029585361 -0.28643602133
          -0.4060446322 0.055568095297 0.79622811079 -1.5916434526 0.53662014008 1.3058475256
          -0.85065364838 1.2601430416 0.36459982395 -0.63242048025 0.89959877729 -0.21629147232
          1.3954197168 0.74087995291 -0.51796269417 1.0381846428 -0.5025370717 -0.17319940031
          0.35403856635 0.18414050341 -0.29573902488 0.77572393417 -0.78677392006 -0.4317650795
          -0.54610729218 -0.66259807348 -0.34825709462 0.64470171928 0.29605099559 0.11921630055
          -0.60257941484 0.56310075521 0.30515831709 0.42932385206 -0.76161402464 -0.66582030058
          1.0847674608 -0.87227582932 -0.41738650203 0.13030098379 -0.71468830109 1.0131115913
          0.8648840785 -0.98527908325 -1.1654186249 -0.23082953691 0.20560906827 -0.54782360792
          0.48651957512 -0.15905211866 -0.1909083724 -0.37646588683 1.080409646 0.8629193306
          -0.92046898603 0.79707026482 0.068029329181 0.61899030209 -0.91288536787 0.07976474613
          -0.12263282388 1.2872431278 0.32686924934 0.21787275374 0.58875280619 -0.51471501589
          0.060312412679 0.55997699499 -0.59741562605 -0.72051352262 -0.62061005831 0.40512788296
          0.44138264656 0.34023097157 1.3927592039 0.18542391062 0.31715232134 0.15681606531
          -1.1641991138 -0.1749676615 -0.050556331873 0.697871387 0.22278484702 0.64086478949
          -0.80039328337 -0.49651655555 0.1280464679 -0.11766405404 -0.33204808831 0.35826796293
          0.25315472484 0.29905799031 0.12565310299 0.0031949342228 0.34471142292 -0.080397211015
          1.0240594149 -0.35985514522 0.26022365689 -0.45243248343 -0.20679099858 0.080741785467
          -0.76423358917 0.22806580365 -0.589640975 -0.022232895717 -0.15195512772 0.004005220253
          0.9390334487 -0.83021831512 -0.4517762363 0.45198577642 0.51033961773 -1.0214669704
          -0.29761686921 -0.14403536916 -0.10927250236 0.21567317843 0.18224588037 0.38499817252
          -0.99575269222 -0.17901475728 -0.0043896832503 -0.049243457615 1.0939638615 -1.3390901089
          -0.51127833128 0.060542196035 -0.33777785301 0.72336673737 0.53434967995 1.5218867064
          0.060059815645 -0.12858691812 -0.044262524694 0.74214208126 -0.0213340763 0.19268265367
          0.3804872334 -0.88854056597 0.040465075523 0.52732139826 -0.044506620616 -0.46743443608
          0.089864984155 0.45284473896 -0.070970445871 0.35558512807 0.7107552886 -1.4364423752
          -0.32687649131 0.11627729982 0.11998482794 0.073647677898 0.80278974771 -0.019517814741
          -0.98981314898 -0.9167958498 0.78011333942 -0.043668273836 1.068502903 -0.19098137319
          -1.1334934235 0.12487833202 0.19781495631 0.52915537357 -0.67090904713 -0.12490499765
          0.63884878159 0.5558205843 -0.82045769691 -0.17192530632 0.78561526537 0.30117312074
          0.49050521851 0.50527387857 0.52099049091 0.26959785819 -0.42735770345 0.23321412504
          -0.69168585539 0.3282879591 -0.13599166274 0.68527454138 -0.12819506228 -0.15258803964
          0.32927665114 -1.7173902988 -0.13783055544 0.0022576383781 -0.48537886143 -0.039566703141
          0.55559784174 -0.19034460187 0.23951913416 -0.35974389315 -0.34869489074 0.87259292603
          0.86302888393 -0.051386132836 -0.12456357479 -0.52670395374 -0.43007782102 0.53064155579
          -0.11298819631 -0.095770172775 0.18164481223 -0.24527825415 1.2235299349 0.61095517874
          -1.1138336658 -0.15265189111 -0.18000663817 -0.79484152794 0.32286953926 -0.31477352977
          -0.64970982075 0.11544736475 -0.35654738545 0.26020130515 -0.34517610073 -0.34282654524
          -0.75884008408 -0.30951449275 0.19964942336 0.060980614275 -0.73456430435 -0.1376221031
          0.60252773762 -0.34669992328 -0.20204381645 -0.71848189831 -0.006145588588 -0.28731998801
          0.17606124282 -0.15672528744 -0.75038844347 -0.18461443484 0.51224297285 0.39305821061
          0.67593568563 1.0259791613 -0.75191891193 -0.1399910897 -0.60771769285 -0.41396865249
          -0.37226668 -0.072905980051 -0.071106210351 0.82100790739 -0.2144048661 -0.11918240041
          1.0186780691 -0.3866879344 -0.62736940384 -0.18730321527 -0.02081987448 0.78407257795
          -1.2079521418 -0.042486812919 -0.77965134382 -0.48129406571 1.0020893812 -0.26004379988
          0.36003124714 0.1228068918 0.1224674359 0.20468859375 0.81006371975 0.79306662083
          1.0715714693 0.41397964954 -0.27369651198 1.1007841825 0.20086529851 -0.22467280924
          0.68762850761 0.081231571734 -0.076735444367 -0.8863838315 -0.47599852085 0.040132310241
          0.040335584432 -0.06543584168 0.82919186354 -0.72556370497 -0.33674734831 -0.55795055628
          1.5915309191 -0.28546628356 -0.88944774866 0.31102615595 -0.36595073342 0.07346239686
          -0.8005657196 -0.40748402476 -0.84628409147 -0.2890907228 -1.0093568563 -0.5418112874
          -0.63332498074 -0.33294695616 0.28851807117 0.23718960583 -0.11141818762 0.12213934958
          1.0501283407 -0.63622945547 0.070353455842 -0.73597449064 -0.45630165935 0.12576898932
          -0.29121461511 0.32553738356 -0.41040685773 -0.5088133812 -0.70110404491 0.062384173274
          0.57165855169 -0.83588171005 0.42431521416 -0.11526657641 0.84856808186 -1.2619967461
          -0.06902077049 -0.36027944088 -0.98995131254 0.10780125856 -0.73730844259 0.64985048771
          0.17167197168 0.38130187988 0.62074321508 -0.018816366792 -0.13686935604 -0.22025284171
          0.40104982257 0.71091711521 -0.592020154 -0.96789777279 -0.46073257923 0.39279821515
          -0.50436019897 -0.47421628237 -0.57923781872 -0.40110206604 -0.082740262151 1.0003278255
          0.12554977834 0.32109472156 -0.24009941518 -0.67020618916 -0.62936335802 -0.17166048288
          -0.5161985755 0.78244543076 -1.0790505409 0.15060783923 -0.34249192476 -0.13345202804
          -0.64642435312 0.13748696446 0.77063548565 -0.24046993256 0.44750717282 0.67183583975
          0.24208526313 -0.095183983445 1.1857477427 -0.16775146127 -0.26251196861 0.58090847731
          0.014953102916 0.98187750578 0.040485098958 -1.4818960428 -0.054063312709 -0.89272493124
          -0.30542299151 0.8561322093 0.84526354074 -0.06013719365 0.26001438498 -0.71012628078
          0.78539979458 -1.4590383768 0.60653859377 -0.073268078268 -0.070039123297 -0.512411654
          -0.25726658106 0.64573252201 0.4187732935 0.56568038464 0.3629912734 0.62092089653
          -0.013096805662 0.28558307886 -0.21977476776 0.75831741095 0.31880995631 -0.34403714538
          0.26892909408 1.0066143274 0.075554683805 0.54750794172 0.029752170667 -0.63170468807
          0.40330138803 -0.31278398633 0.24754659832 1.5024828911 0.14982412755 0.40777990222
          -0.48855355382 -0.42418560386 0.32424563169 -0.26982617378 -0.66702646017 -0.10377689451
          -1.647988081 0.11876232922 0.45948016644 -0.48756086826 0.64911836386 -1.1155134439
          0.029301073402 -0.035296112299 0.46518850327 0.58575373888 0.12692897022 0.50195288658
          0.82137686014 -0.23071463406 0.29051882029 0.39764288068 0.61068981886 -0.31519812346
          -0.75250160694 0.047966960818 -0.23368911445 0.76683408022 -0.7922308445 -0.11033423245
          0.91404700279 -0.26920226216 0.049398574978 0.89181351662 1.0478386879 -0.033921219409
          -0.30977454782 0.67807483673 -0.31322234869 -0.10928637534 -0.032934170216 0.37607613206
          -1.4834835529 0.52630031109 0.4309129715 -1.0972665548 0.51876711845 -0.72283697128
          0.035745859146 -1.1632953882 -0.56296980381 -0.084602110088 -1.0566077232 0.35780465603
          0.70330816507 -0.70265382528 0.46687483788 -0.22005717456 -0.17810894549 -0.043444287032
          -0.58482974768 -0.44418975711 0.42742440104 0.7106308341 -0.30080902576 0.17790226638
          -0.57242059708 0.57152980566 0.13311040401 0.29838350415 -0.20706945658 -1.0992816687
          -0.41522631049 0.32656577229 -0.38994070888 0.42373800278 -0.12345503271 0.51788729429
          -0.53493446112 -0.75290650129 0.8134713769 0.21725340188 0.40103471279 -0.45934531093
          1.1194133759 0.13252109289 -0.10979138315 -0.69263297319 -0.67765724659 -0.57400369644
          0.19641076028 -0.81797116995 0.033554919064 -0.62496888638 0.11286459863 -0.00013247960305
          -0.18638497591 0.40460255742 -0.063043951988 0.21403352916 -0.26522740722 0.46771645546
          -0.42479899526 -0.89929842949 0.25104171038 0.50807219744 0.12705589831 0.44043025374
          -0.30260166526 0.091060563922 0.4867130816 0.014454372227 -0.12853139639 0.32253938913
          0.45389083028 0.38609758019 1.0272305012 0.031793348491 0.15276423097 0.0035012515727
          0.18985523283 0.41978153586 -0.21038645506 -0.03848516196 0.27653774619 0.084139294922
          0.15542900562 0.67856937647 1.0472518206 0.158889696 -0.35724842548 -0.15575687587
          -1.2983820438 -0.02414794825 0.24899570644 0.31595560908 -0.28459131718 -0.2949167192
          -0.84379929304 0.62176609039 0.30409258604 -0.33448818326 0.65238386393 -0.42448696494
          -0.98429936171 -1.1915143728 0.077360093594 -0.28790959716 -0.52445560694 -0.13982509077
          0.41206789017 -0.22793327272 -0.45485183597 0.32566332817 1.0408787727 -0.28051620722
          -0.20650976896 0.10363945365 0.33030754328 0.075892046094 0.045173026621 -0.17569637299
          0.68619757891 -0.39400136471 -0.73760658503 -0.17716448009 0.31713214517 -0.80301254988
          -0.89744693041 -1.1551111937 -0.13711574674 -0.54302448034 0.35790196061 0.26465708017
          -0.8870331645 -0.09706107527 0.2821444869 0.87612861395 0.34206873178 -0.90391856432
          0.14123809338 -0.1766154021 -0.14920942485 -1.1799566746 0.038964223117 -0.89335602522
          -0.10915897042 -0.103375718 1.1340664625 -0.0098672406748 0.1891207248 -0.18393972516
          0.26409071684 -0.016391050071 -0.48852568865 -0.002138245618 0.14685219526 0.35267010331
          0.59812998772 0.43748676777 0.44076085091 0.04632152617 0.44136637449 0.42104366422
          0.31078481674 0.62622386217 0.087619498372 0.13147947192 0 0
          0 0 0 0 0 0
          0 0 0 0 0
        </DataArray>
        <DataArray type="Float32" Name="uz" format="ascii" RangeMin="-1.707030654" RangeMax="1.7354865074">
          0.65694862604 1.2023636103 0.99689358473 -0.70969134569 0.18749634922 0.023320216686
          -0.60655099154 -0.017155149952 -0.40205326676 0.4673936367 -0.69210839272 0.14545787871
          -0.094155944884 -0.17528502643 -0.31168806553 -1.2933375835 0.55554634333 -0.0016731708311
          0.46437090635 0.1812235713 -0.79129177332 -0.43050515652 -0.38743236661 0.84574949741
          0.24214747548 0.17552834749 -0.47804111242 0.37597492337 0.051777075976 -1.0192455053
          0.078178778291 -0.17015235126 -0.68126529455 0.2837985158 1.4915994406 0.024249099195
          -0.28499871492 -0.13676832616 -0.8911677599 -0.2141713649 -0.5792145133 0.70845603943
          -0.29915004969 0.058345485479 0.54544907808 0.94658041 -0.17162185907 -1.2166152
          0.37178128958 -0.92854654789 -0.42905271053 -0.72205770016 0.2660703361 -0.20493999124
          1.0402855873 1.1707025766 -0.65282410383 -0.066326521337 -0.88504701853 0.34081825614
          -0.99921703339 -0.15955486894 -0.53997945786 0.023168757558 0.68211090565 0.65697598457
          -1.16992414 0.044725749642 -0.20792602003 0.17195524275 -0.060771785676 -0.64583152533
          -0.89745205641 -1.2318117619 -0.37902358174 0.079369567335 -1.0477451086 0.88109326363
          0.32501316071 -1.707030654 -0.00604263274 -0.60861945152 0.3230189383 0.27866205573
          0.27876588702 0.69256210327 0.14885775745 0.36664193869 0.88105195761 0.029814537615
          -1.1354472637 -0.68631184101 -0.24198931456 -0.46497729421 0.79346573353 0.20746451616
          -0.46841490269 -0.31302046776 -1.286467433 0.8614115119 -0.38774108887 -0.43888121843
          -0.75567013025 0.84252136946 -0.30685764551 0.32343825698 -0.24213556945 -0.31367686391
          -0.22505490482 -0.31721255183 0.13224087656 0.14722083509 -0.55253535509 1.1462255716
          0.77571886778 0.54259687662 -0.34485730529 -0.055134166032 -0.28627166152 0.43819931149
          -1.2073737383 -0.064071774483 0.30572557449 0.14207074046 0.94287872314 -0.47626051307
          -1.4078637362 -0.24198465049 -0.73047846556 -0.8372606039 -0.12623886764 1.1050531864
          -0.33900493383 -0.95543819666 -0.22893960774 0.78222858906 0.077605560422 0.82441866398
          -1.0247944593 0.1573343426 -0.21360905468 -0.35049793124 0.77610236406 -0.31020417809
          -0.35399532318 0.98189252615 0.48045814037 1.7354865074 -0.34018421173 0.020477522165
          -0.42191186547 0.50032430887 0.050464700907 0.56725651026 0.76031041145 -0.72694015503
          0.1018768996 -0.065072394907 0.83809149265 0.42476433516 1.283916831 -0.61022162437
          -0.6327649951 0.60338824987 -0.17513403296 0.68621617556 0.2243591845 -0.034955564886
          0.19186639786 0.24508164823 0.12894679606 -1.0139397383 1.2251511812 0.26706105471
          -1.018102169 -0.87307828665 -0.46240115166 0.23346590996 0.035543050617 -0.59930324554
          -1.0999386311 0.19324807823 -0.39504665136 -0.4083738625 -0.57543671131 0.16107194126
          -0.60426169634 0.76759654284 -1.6532540321 0.5410938859 -0.25623041391 -0.25428238511
          -0.060836158693 -0.16445094347 0.51828402281 0.18270616233 0.0041398522444 0.50794845819
          1.298258543 0.50329780579 0.72677874565 0.95297646523 0.4155625701 0.36676004529
          0.54504781961 -0.62258982658 0.28379955888 0.31552895904 0.40791124105 -0.27820396423
          -0.25777986646 -0.34881961346 -0.29420360923 0.12272322178 0.23895347118 0.13449409604
          -1.3330801725 0.41154497862 -1.2244566679 -0.48044121265 0.024141369388 0.4287673831
          0.42061650753 0.28595969081 -0.44535407424 0.76862847805 -0.7476696372 0.40619820356
          -0.014333544299 -0.0090861395001 -0.20194293559 0.43298944831 -0.52225804329 0.22466677427
          0.13106743991 0.41209667921 0.25267449021 0.32881861925 0.22110746801 0.15138921142
          -0.068918086588 -0.81195217371 0.46253269911 -1.1495803595 0.48929661512 -0.74312335253
          0.91627627611 0.25972878933 0.33864629269 0.18157863617 -0.71689069271 -0.48632904887
          0.82589584589 -0.17932944 -0.15586623549 0.60493540764 -1.0850090981 0.037698645145
          0.45179113746 -0.086350239813 0.20490324497 -0.86352217197 -0.20557132363 0.033286835998