<VTKFile type="UnstructuredGrid" version="1.0" byte_order="LittleEndian" header_type="UInt64">
  <UnstructuredGrid>
    <Piece NumberOfPoints="791" NumberOfCells="973">
      <PointData>
        <DataArray type="Float32" Name="ux" format="ascii" RangeMin="0" RangeMax="0.59342837334">
          0.28886383772 0.25731992722 0.13679647446 0.35643973947 0.36233732104 0.48645436764
          0.52788877487 0.27869397402 0.35969898105 0.064418561757 0.54372662306 0.074687123299
          0.21131084859 0.37414166331 0.39417743683 0.06925714761 0.37079405785 0.57147741318
          0.52936166525 0.25234720111 0.15418963134 0.53078734875 0.54861873388 0.29761666059
          0.46867671609 0.4631293714 0.19281807542 0.23862941563 0.52357017994 0.37499928474
          0.063611529768 0.45193701982 0.062323749065 0.19018234313 0.27529868484 0.31835120916
          0.20407621562 0.10496969521 0.10052703321 0.26291751862 0.2516669929 0.20345942676
          0.19568385184 0.27141046524 0.44922053814 0.22919665277 0.12373568863 0.49087795615
          0.44146257639 0.47982519865 0.31517162919 0.1606271714 0.095690451562 0.34389606118
          0.35143145919 0.16664482653 0.25421911478 0.12284038216 0.22077140212 0.32946515083
          0.2141058147 0.32529312372 0.23808827996 0.37631550431 0.38330724835 0.31166648865
          0.082422122359 0.44068872929 0.21823617816 0.38148966432 0.23763029277 0.51756006479
          0.31631377339 0.11349135637 0.56201350689 0.3354125917 0.35191214085 0.57242250443
          0.59097385406 0.14815470576 0.16714882851 0.07121565938 0.23542289436 0.20152631402
          0.11464171857 0.18705315888 0.51515954733 0.30823835731 0.24095222354 0.3394908905
          0.15572099388 0.08193641901 0.27921614051 0.30068963766 0.4072522819 0.23104926944
          0.59342837334 0.22687365115 0.18003998697 0.42243337631 0.4187567234 0.57831460238
          0.24777555466 0.24948611856 0.25762924552 0.29329317808 0.15553382039 0.19770812988
          0.16650629044 0.28132677078 0.195490852 0.37921598554 0.44873848557 0.20595829189
          0.57180559635 0.53605598211 0.30853796005 0.098451793194 0.35379636288 0.50374919176
          0.37504053116 0.4106733501 0.084907859564 0.58693879843 0.34171959758 0.12268014997
          0.28178164363 0.065838947892 0.18229398131 0.35820114613 0.29437661171 0.20379574597
          0.34384709597 0.07504247874 0.3046182096 0.44762536883 0.18847492337 0.51114445925
          0.38999611139 0.40903413296 0.433899194 0.43566301465 0.53581231833 0.50113689899
          0.22795145214 0.28080785275 0.34033593535 0.14742892981 0.16865040362 0.52304577827
          0.24608458579 0.26003682613 0.56709748507 0.48730757833 0.2097877562 0.46961560845
          0.42007929087 0.10508987308 0.3721820116 0.17477424443 0.50206124783 0.28780218959
          0.58898431063 0.1767180264 0.1265694797 0.56306731701 0.29811999202 0.35156986117
          0.075418844819 0.39130628109 0.35123369098 0.3715980947 0.49206545949 0.56077092886
          0.18256531656 0.10852927715 0.29875835776 0.14412011206 0.41344314814 0.13838623464
          0.19191117585 0.31930106878 0.34498563409 0.28094989061 0.16189028323 0.12074956298
          0.2390408814 0.56886297464 0.24173979461 0.54700088501 0.15356729925 0.25541943312
          0.16421875358 0.57694369555 0.16830390692 0.40940240026 0.4249098897 0.58102756739
          0.47458434105 0.56392866373 0.25915157795 0.14618380368 0.42858067155 0.37544497848
          0.57502496243 0.34684810042 0.088542334735 0.47281208634 0.20696756244 0.19400583208
          0.14282137156 0.5226675868 0.56364053488 0.3572062552 0.41409409046 0.44528630376
          0.37003746629 0.21216274798 0.5900606513 0.25427246094 0.29696983099 0.4514529407
          0.45471277833 0.37407964468 0.094895258546 0.50397366285 0.32962355018 0.42217862606
          0.10952106118 0.29732197523 0.39417767525 0.59267628193 0.39856663346 0.085446693003
          0.13658316433 0.50712698698 0.45677793026 0.42074549198 0.24235066772 0.2109220475
          0.19574557245 0.31443831325 0.30056595802 0.14165961742 0.13536475599 0.34716978669
          0.55400562286 0.22464793921 0.40273630619 0.33451616764 0.20408426225 0.35262748599
          0.37017920613 0.57914423943 0.31781297922 0.47512853146 0.35804453492 0.11374798417
          0.4528144896 0.26023715734 0.099968835711 0.23562088609 0.075708694756 0.16171075404
          0.17377321422 0.18228243291 0.59098535776 0.11287855357 0.42446276546 0.34354218841
          0.49788534641 0.33948534727 0.070551417768 0.12101268768 0.20562893152 0.13053806126
          0.58708077669 0.52768486738 0.52352708578 0.41911613941 0.19543799758 0.31959557533
          0.41645103693 0.25756055117 0.27017438412 0.39135557413 0.33861094713 0.08557163924
          0.12172017992 0.13590604067 0.080659896135 0.20397046208 0.15748915076 0.13594901562
          0.53848439455 0.1472620368 0.48937603831 0.24025578797 0.43552836776 0.13703627884
          0.12939032912 0.26985412836 0.58810907602 0.47064432502 0.15331037343 0.55440378189
          0.30258992314 0.14454455674 0.17779941857 0.081935413182 0.2524035275 0.50870388746
          0.3554045856 0.19794254005 0.55020070076 0.51071190834 0.28939935565 0.06695690006
          0.27401658893 0.085727155209 0.59334230423 0.52805638313 0.40383586287 0.35343068838
          0.45236104727 0.17684084177 0.34047657251 0.33738929033 0.43017330766 0.18624667823
          0.2887737453 0.5322021842 0.4751983881 0.48625427485 0.35919812322 0.071126140654
          0.18329234421 0.55548667908 0.49001434445 0.12297468632 0.1714092046 0.29508727789
          0.55711352825 0.40436571836 0.37405630946 0.53645247221 0.57318377495 0.51525777578
          0.35003459454 0.08177459985 0.49915099144 0.20069225132 0.23423035443 0.083286941051
          0.27246329188 0.25316551328 0.20029488206 0.58450037241 0.21755696833 0.44313183427
          0.079594291747 0.34686639905 0.19026847184 0.54628813267 0.48996430635 0.11279143393
          0.42877662182 0.088141545653 0.19777339697 0.31299480796 0.48113450408 0.091365359724
          0.47733274102 0.29466602206 0.10028065741 0.10657455027 0.44874283671 0.19712169468
          0.11296033114 0.57393056154 0.41608697176 0.52102142572 0.2664078474 0.22515258193
          0.58697772026 0.08766708523 0.44546273351 0.4387242496 0.26808705926 0.30872017145
          0.51406210661 0.42238789797 0.2279381156 0.32118353248 0.10907334089 0.32186987996
          0.077890433371 0.35873687267 0.33728834987 0.52617543936 0.41657012701 0.16733773053
          0.55136865377 0.17631730437 0.51247811317 0.37908133864 0.29285404086 0.21591329575
          0.54419326782 0.45830777287 0.33369073272 0.36769583821 0.11976189911 0.30066341162
          0.31584018469 0.33029973507 0.21514080465 0.30851480365 0.33843636513 0.19321957231
          0.4558493197 0.40761387348 0.54371136427 0.40535598993 0.43277108669 0.13129299879
          0.27536273003 0.2628454268 0.096370629966 0.47480797768 0.060867078602 0.22148126364
          0.46761831641 0.19372853637 0.3624483645 0.13885892928 0.38712525368 0.46123963594
          0.24268512428 0.089136868715 0.24207785726 0.37932726741 0.30165845156 0.061787590384
          0.41420698166 0.17409932613 0.59203088284 0.1143040657 0.3865711689 0.43858069181
          0.34821230173 0.13039843738 0.34905958176 0.49790510535 0.53999423981 0.090321645141
          0.21098263562 0.49654430151 0.37034678459 0.37497410178 0.31947577 0.46432933211
          0.5598218441 0.39272040129 0.43500706553 0.14528146386 0.4010219574 0.53664976358
          0.35749620199 0.25853875279 0.27896863222 0.29554224014 0.28067192435 0.41132465005
          0.31859403849 0.078598789871 0.083215340972 0.41656023264 0.36345052719 0.35834467411
          0.15869952738 0.13372892141 0.23060843349 0.40110117197 0.32113966346 0.38814476132
          0.22362589836 0.38203936815 0.5861928463 0.16540150344 0.53248625994 0.51491969824
          0.16502146423 0.093269765377 0.088312372565 0.36501601338 0.36340877414 0.11819256097
          0.32608360052 0.30206102133 0.38056662679 0.30327388644 0.14901296794 0.58277159929
          0.14790378511 0.46202650666 0.45832633972 0.23520743847 0.50620311499 0.13977438211
          0.26515367627 0.53403806686 0.31600657105 0.32624623179 0.1577553302 0.32494953275
          0.16390767694 0.27177223563 0.55968105793 0.07764338702 0.44625371695 0.18275161088
          0.26496097445 0.32133296132 0.33047655225 0.25761345029 0.24569410086 0.26028209925
          0.26709240675 0.14992770553 0.10720839351 0.39384582639 0.1825324297 0.46565777063
          0.31978091598 0.36500895023 0.36284559965 0.12462437898 0.47834125161 0.061638794839
          0.27333399653 0.28348058462 0.49589377642 0.58234357834 0.092825047672 0.33207115531
          0.23814576864 0.24255214632 0.56667870283 0.061091504991 0.52137750387 0.24223060906
          0.22124549747 0.29971280694 0.47506293654 0.59027802944 0.57834839821 0.5387762785
          0.56799834967 0.31989648938 0.29140764475 0.072854086757 0.37309685349 0.11050842702
          0.28525519371 0.10938812047 0.41661906242 0.18356446922 0.57086592913 0.22017851472
          0.39534240961 0.10633000731 0.48017197847 0.48774936795 0.34086546302 0.30228862166
          0.38079991937 0.52044838667 0.31971603632 0.32184815407 0.38965395093 0.35933110118
          0.32880711555 0.10436674207 0.49787968397 0.42750737071 0.18330094218 0.52871006727
          0.11103122681 0.088274545968 0.50979536772 0.50387483835 0.14444051683 0.36406224966
          0.085000813007 0.21659171581 0.45819374919 0.30683487654 0.3731777668 0.07370890677
          0.53275454044 0.52452969551 0.44889685512 0.1909430176 0.17693245411 0.29212900996
          0.57576131821 0.33502167463 0.089613556862 0.38453820348 0.072319723666 0.39845758677
          0.33644518256 0.33021700382 0.3379521966 0.20481319726 0.40642374754 0.51407235861
          0.3546551466 0.073694698513 0.26578974724 0.10300157964 0.46891647577 0.20621150732
          0.12776996195 0.31936123967 0.40155529976 0.2706952095 0.5655836463 0.31709471345
          0.48005840182 0.06599907577 0.16313123703 0.14072297513 0.17994293571 0.40425154567
          0.53562939167 0.4699011147 0.11166882515 0.38084995747 0.58320814371 0.33164307475
          0.16749627888 0.32261288166 0.33258035779 0.2021369487 0.58830481768 0.37521088123
          0.20697434247 0.15777671337 0.37028086185 0.52817624807 0.52087330818 0.20135609806
          0.35975030065 0.30375882983 0.45731008053 0.44036459923 0.56016170979 0.48757830262
          0.35439789295 0.38010299206 0.13714963198 0.3277862668 0.23229722679 0.57128435373
          0.24020464718 0.26886382699 0.22679495811 0.55276638269 0.40309596062 0.067528143525
          0.24668243527 0.091214753687 0.32282182574 0.14324826002 0.067892126739 0.52728390694
          0.22618576884 0.22106146812 0.084608927369 0.57083129883 0.19339352846 0.52933013439
          0.17688849568 0.33733800054 0.39879161119 0.13390101492 0.5051265955 0.18853019178
          0.47203329206 0.31308180094 0.21500191092 0.22886089981 0.56372523308 0.14125905931
          0.2082939744 0.33433333039 0.097989171743 0.38128125668 0.33138665557 0.3864736259
          0.20297193527 0.17850799859 0.24788850546 0.51863563061 0.11494793743 0.20429560542
          0.26543655992 0.20671008527 0.43295940757 0.38645976782 0.23819330335 0.5165143609
          0.33560097218 0.50977420807 0.51707100868 0.52154272795 0.53475117683 0.45717418194
          0.10779474676 0.32277750969 0.58976262808 0.28783407807 0.31238815188 0.34885460138
          0.2603431046 0.45825344324 0.32184484601 0.17781770229 0.3212299943 0.4219712019
          0.25683671236 0.4192032516 0.16437998414 0.20760464668 0.35138365626 0.41423544288
          0.11965136975 0.54045242071 0.18020583689 0.45393308997 0.33698400855 0.50290447474
          0.1707624346 0.16803140938 0.15158292651 0.22391019762 0.12290799618 0.3996925056
          0.12575431168 0.41035494208 0.54804182053 0.54032510519 0.58676677942 0.10010453314
          0.56298142672 0.36495628953 0.36112973094 0.28173309565 0.58380132914 0.075304202735
          0.28235498071 0.41402313113 0.14155197144 0.31009954214 0.090617224574 0.25773510337
          0.48642763495 0.50549799204 0.15087151527 0.2278867662 0.11835096031 0.27820953727
          0.29061701894 0.18972787261 0.51428109407 0.48675715923 0 0
          0 0 0 0 0 0
          0 0 0 0 0
        </DataArray>
        <DataArray type="Float32" Name="uy" format="ascii" RangeMin="0" RangeMax="0.59362882376">
          0.27422365546 0.31512093544 0.16302518547 0.38587531447 0.58562499285 0.19322708249
          0.061431847513 0.089393727481 0.4287135005 0.064977698028 0.53347373009 0.19209493697
          0.40502145886 0.1968665123 0.43583071232 0.58385562897 0.51450008154 0.57882976532
          0.54966920614 0.57713025808 0.56987082958 0.33607915044 0.06408521533 0.31863439083
          0.53365510702 0.22385820746 0.16679748893 0.33706468344 0.39453688264 0.087033599615
          0.18166673183 0.47181639075 0.065072320402 0.25216808915 0.10838051885 0.35340255499
          0.43984377384 0.51042562723 0.48215126991 0.50424736738 0.56761449575 0.19428570569
          0.57940495014 0.11966393143 0.30153679848 0.39630237222 0.25356483459 0.2376820147
          0.3723897934 0.20498625934 0.21526479721 0.23282378912 0.4535125196 0.37541100383
          0.40619245172 0.35541442037 0.38627615571 0.44011387229 0.29445940256 0.27800276875
          0.23634888232 0.065565288067 0.59032934904 0.51396226883 0.48291307688 0.26806727052
          0.29048234224 0.068958632648 0.33304080367 0.50152856112 0.20903329551 0.37726175785
          0.24164237082 0.083918735385 0.56026345491 0.32763248682 0.20805341005 0.45529291034
          0.31218269467 0.56102836132 0.53198409081 0.34567081928 0.30812695622 0.37575027347
          0.5636177063 0.29545503855 0.17004910111 0.57920295 0.11656882614 0.42928189039
          0.3158095181 0.58740991354 0.42042776942 0.57179737091 0.56663227081 0.22219121456
          0.13261318207 0.53446012735 0.41039347649 0.23011156917 0.1073378399 0.18321809173
          0.20359158516 0.23250643909 0.55244100094 0.26268431544 0.41992896795 0.38704869151
          0.38567179441 0.42610776424 0.16020190716 0.070023946464 0.16718155146 0.071159504354
          0.4629406631 0.078580841422 0.17412105203 0.55176097155 0.21807309985 0.39416220784
          0.29677936435 0.088232293725 0.24048310518 0.26179927588 0.3746240139 0.2774490416
          0.39184358716 0.24554179609 0.24099591374 0.44014194608 0.48387148976 0.58175927401
          0.14224226773 0.1251834631 0.24744054675 0.066430918872 0.41836282611 0.067906059325
          0.49752527475 0.31236222386 0.45692276955 0.24148084223 0.28310835361 0.48375245929
          0.47221928835 0.26643690467 0.46785965562 0.41134089231 0.29664394259 0.43067008257
          0.19507214427 0.33233344555 0.43834224343 0.23784407973 0.090947084129 0.48225492239
          0.34571132064 0.4513951242 0.57204252481 0.32968521118 0.092898011208 0.33677917719
          0.13354328275 0.50313669443 0.40138682723 0.42639943957 0.45471718907 0.1444169879
          0.5470507741 0.134533301 0.25384545326 0.22765171528 0.43809312582 0.4875600934
          0.11403837055 0.33559554815 0.36701089144 0.57939040661 0.46506431699 0.31802543998
          0.36670169234 0.54514431953 0.56957930326 0.57996571064 0.16879014671 0.27616670728
          0.14292432368 0.31532040238 0.22747781873 0.30242082477 0.59225183725 0.56225335598
          0.40110528469 0.27283588052 0.11910244077 0.10953965038 0.071286760271 0.53322410583
          0.24224215746 0.11178573221 0.17701739073 0.33314275742 0.33230385184 0.26923695207
          0.52158343792 0.56705051661 0.35957950354 0.21093866229 0.15356455743 0.15526334941
          0.45808753371 0.50657892227 0.27933448553 0.082713678479 0.43083909154 0.5029297471
          0.20871542394 0.26587310433 0.13462382555 0.50610607862 0.56055700779 0.20950089395
          0.22263394296 0.22138309479 0.53902602196 0.58902138472 0.16851998866 0.4374806881
          0.38935026526 0.41171333194 0.39438247681 0.48441800475 0.11066935211 0.4628290236
          0.061525136232 0.48436540365 0.092966966331 0.23760806024 0.1189025715 0.2841578126
          0.44771113992 0.21311506629 0.24090887606 0.11593170464 0.51512002945 0.48252949119
          0.57117009163 0.58524906635 0.41882929206 0.21045047045 0.22931982577 0.20884802938
          0.39037537575 0.385076195 0.17367684841 0.27599489689 0.1084548682 0.35589703918
          0.10856579244 0.34810015559 0.082957699895 0.13514764607 0.50736683607 0.47965046763
          0.41025301814 0.29234665632 0.15449276567 0.23160156608 0.1588228941 0.16535930336
          0.19758862257 0.55731207132 0.29164993763 0.56247419119 0.38392525911 0.31359389424
          0.37099823356 0.30649927258 0.12644326687 0.32789587975 0.24804107845 0.1110297069
          0.16998159885 0.15818427503 0.55387789011 0.23474057019 0.57055968046 0.12389458716
          0.553845644 0.27701318264 0.45432543755 0.25168257952 0.1121628806 0.16314445436
          0.42598193884 0.062006961554 0.14333721995 0.3744469285 0.081670932472 0.41869172454
          0.36429747939 0.44123443961 0.15350887179 0.068285599351 0.50935518742 0.11756496876
          0.32970380783 0.33475866914 0.22160023451 0.11194263399 0.068357035518 0.26900780201
          0.36739179492 0.37516281009 0.45821514726 0.54513221979 0.077053412795 0.12804590166
          0.49734511971 0.24080725014 0.15266139805 0.47337168455 0.44283637404 0.54152822495
          0.47660177946 0.55112856627 0.20330712199 0.21646492183 0.19382214546 0.44477975368
          0.076468557119 0.12977766991 0.57885295153 0.36547222733 0.45375075936 0.26418933272
          0.33963188529 0.27298864722 0.38166940212 0.1493794769 0.11824028194 0.4397816956
          0.39016878605 0.084782458842 0.06168660894 0.52363723516 0.16821815073 0.28032794595
          0.51455610991 0.42649808526 0.5898476243 0.41120368242 0.38401857018 0.28290387988
          0.44714218378 0.47977438569 0.11324187368 0.52666759491 0.27082002163 0.30872622132
          0.15351186693 0.41177862883 0.54782879353 0.23322325945 0.42128458619 0.4408583045
          0.32914784551 0.15773066878 0.30181691051 0.1141384393 0.29409056902 0.24576516449
          0.45225480199 0.5357657671 0.54154515266 0.30057549477 0.3179500699 0.28601741791
          0.077219769359 0.54849457741 0.58430212736 0.3640896678 0.39801865816 0.24257951975
          0.56509619951 0.57591152191 0.12393552065 0.27850738168 0.42191287875 0.52251279354
          0.4456576705 0.087376609445 0.114900738 0.079973563552 0.23836924136 0.29919579625
          0.33328673244 0.47720444202 0.46685132384 0.1364428103 0.57284605503 0.17277060449
          0.3873758018 0.2805891037 0.44774496555 0.28776907921 0.54421651363 0.35336825252
          0.35041496158 0.56951010227 0.20085665584 0.29349023104 0.43917694688 0.54800546169
          0.25610566139 0.43213585019 0.19716195762 0.43710967898 0.4650811851 0.28027397394
          0.50205910206 0.11671105027 0.11818541586 0.40502306819 0.21834820509 0.19397854805
          0.27116340399 0.1714348495 0.39000475407 0.43527546525 0.095992960036 0.21664023399
          0.07529374212 0.091702803969 0.082653261721 0.40475839376 0.43746754527 0.35174334049
          0.34984704852 0.22974687815 0.36584502459 0.42207798362 0.24285395443 0.2837625742
          0.15113385022 0.1094776094 0.49199920893 0.46987766027 0.25824743509 0.43450254202
          0.511952281 0.32943344116 0.23750090599 0.56474548578 0.53064018488 0.4247957468
          0.11265023798 0.19050398469 0.19466638565 0.19749231637 0.11909647286 0.25379142165
          0.47912076116 0.17957022786 0.40142336488 0.36036238074 0.45862984657 0.53573554754
          0.48245248199 0.46726021171 0.23678359389 0.17721961439 0.11910480261 0.36632302403
          0.13486129045 0.55121606588 0.56084895134 0.20805889368 0.24411897361 0.52506220341
          0.40082103014 0.23735064268 0.53623056412 0.22131817043 0.10732484609 0.42130964994
          0.45022931695 0.5497354269 0.3279902935 0.4370533824 0.24877426028 0.56136488914
          0.44337180257 0.48275053501 0.31595101953 0.31100815535 0.26952394843 0.54396480322
          0.33424687386 0.25689131021 0.24652284384 0.1110194549 0.31678041816 0.25200986862
          0.37518247962 0.27977648377 0.54891693592 0.50210553408 0.42431902885 0.24662026763
          0.14690096676 0.50095140934 0.32245737314 0.24573579431 0.37377634645 0.50319910049
          0.11032574624 0.11600833386 0.30230972171 0.20976306498 0.30393764377 0.49190080166
          0.38921192288 0.51696497202 0.49996435642 0.44497451186 0.22019466758 0.32910585403
          0.14777700603 0.5214497447 0.39670047164 0.32216575742 0.076107315719 0.43178272247
          0.33374935389 0.59312951565 0.087744697928 0.2599132061 0.18528608978 0.47839540243
          0.50116407871 0.54736858606 0.15499949455 0.23842814565 0.48226189613 0.093247570097
          0.29014274478 0.47998651862 0.27456396818 0.24541154504 0.2194827348 0.35616457462
          0.21695019305 0.5067499876 0.23555487394 0.31187024713 0.53163713217 0.3642757535
          0.28568321466 0.55591404438 0.23467978835 0.12828996778 0.22982867062 0.12871813774
          0.11607349664 0.13888391852 0.42035666108 0.25542083383 0.43837878108 0.51065027714
          0.51273149252 0.06291603297 0.58990812302 0.33746865392 0.58870357275 0.29534235597
          0.45275890827 0.2528898716 0.51377981901 0.56485325098 0.56541836262 0.20450292528
          0.12037113309 0.42374533415 0.14763116837 0.095377579331 0.50796592236 0.33667722344
          0.56336694956 0.080594688654 0.54854202271 0.4074293673 0.33961904049 0.075292848051
          0.20033958554 0.2471960187 0.31787931919 0.52426731586 0.50610148907 0.49455195665
          0.39851015806 0.38514813781 0.42556214333 0.33166229725 0.14406834543 0.13476318121
          0.41871580482 0.56495201588 0.50913840532 0.26151221991 0.57335406542 0.080902531743
          0.24521665275 0.59362882376 0.46861815453 0.47952449322 0.22420831025 0.50093799829
          0.4156036377 0.30277013779 0.25038722157 0.29836639762 0.513700068 0.53496724367
          0.46116891503 0.22632300854 0.32069936395 0.21035449207 0.26240158081 0.37115556002
          0.42343169451 0.06533011049 0.059512030333 0.57467836142 0.5797842741 0.49703478813
          0.47076365352 0.25060534477 0.16365651786 0.40685373545 0.54076129198 0.21696084738
          0.54442960024 0.08102978766 0.47137576342 0.070840530097 0.37119811773 0.20432634652
          0.41895022988 0.28692263365 0.25489985943 0.37013787031 0.44528466463 0.2944868207
          0.11333374679 0.45777690411 0.14075686038 0.39684796333 0.18683627248 0.28007265925
          0.35423853993 0.46276840568 0.27193722129 0.27928760648 0.57909303904 0.38962936401
          0.30799755454 0.45135435462 0.59082645178 0.28195649385 0.42001405358 0.31610125303
          0.47209769487 0.5484662056 0.12068421394 0.46833369136 0.23818001151 0.588960886
          0.39382538199 0.20850671828 0.34242114425 0.28784030676 0.4958678782 0.21700251102
          0.32891261578 0.4549601078 0.56115728617 0.52205312252 0.50377053022 0.095468007028
          0.068964481354 0.13352997601 0.11845295131 0.47956863046 0.16376139224 0.52556103468
          0.564863801 0.58343333006 0.061036989093 0.52397423983 0.16066171229 0.13339845836
          0.48105362058 0.2550406158 0.55909597874 0.1751113981 0.56185877323 0.35739642382
          0.56365782022 0.13412331045 0.37373226881 0.26212576032 0.08989007026 0.56632292271
          0.31386959553 0.57890826464 0.44107249379 0.55645853281 0.58160704374 0.18274632096
          0.16788572073 0.11428369582 0.42602473497 0.34187179804 0.26948738098 0.14550819993
          0.51299989223 0.53317087889 0.19207461178 0.17063495517 0.11521844566 0.17351019382
          0.26453286409 0.12003545463 0.089089743793 0.48930972815 0.20548211038 0.38414406776
          0.57773888111 0.21028064191 0.1320617795 0.45382395387 0.47844102979 0.51637369394
          0.25977557898 0.062331587076 0.30191811919 0.34262993932 0.13030749559 0.43204450607
          0.2030736655 0.23513041437 0.19119375944 0.28397992253 0.50222599506 0.087819620967
          0.46327605844 0.22655360401 0.078341662884 0.37156772614 0.46304652095 0.096816726029
          0.31915712357 0.30903127789 0.39757031202 0.11944701523 0.51345103979 0.23107634485
          0.44763016701 0.45303106308 0.33885285258 0.51854455471 0.088038995862 0.34474667907
          0.39119052887 0.45014876127 0.065957285464 0.16117447615 0 0
          0 0 0 0 0 0
          0 0 0 0 0
        </DataArray>
        <DataArray type="Float32" Name="uz" format="ascii" RangeMin="0" RangeMax="0.59376448393">
          0.30868473649 0.49847948551 0.077885486186 0.07116124779 0.22925767303 0.5080512166
          0.42434221506 0.31587955356 0.27936160564 0.45881226659 0.46085140109 0.50550687313
          0.14421924949 0.18204519153 0.27443036437 0.059949330986 0.58802956343 0.58889877796
          0.15108467638 0.091706901789 0.24520380795 0.4448107779 0.34354177117 0.13694572449
          0.53403031826 0.13286618888 0.41951200366 0.24288055301 0.14809277654 0.55889880657
          0.30263781548 0.08902104944 0.16096547246 0.086437575519 0.54643177986 0.25986865163
          0.4371830225 0.17518174648 0.19319735467 0.43795061111 0.56761604548 0.32038611174
          0.45988869667 0.2566280365 0.22683130205 0.32457271218 0.28787446022 0.19576258957
          0.12126275152 0.37978923321 0.59012538195 0.26461169124 0.17867513001 0.42238727212
          0.21792821586 0.37695470452 0.4193559587 0.064591258764 0.067939966917 0.32450056076
          0.22684010863 0.23210200667 0.26125586033 0.57912486792 0.36137875915 0.58975511789
          0.39787212014 0.19761994481 0.0698890239 0.54004448652 0.25168994069 0.43171745539
          0.40730041265 0.22670647502 0.11582602561 0.43628275394 0.21194773912 0.13781066239
          0.1694957912 0.154771626 0.23908431828 0.29640266299 0.47954073548 0.1511080116
          0.07385224849 0.35519534349 0.38767266273 0.26315015554 0.39773598313 0.57607662678
          0.15000467002 0.40290766954 0.38915425539 0.52673304081 0.25752666593 0.43064039946
          0.52032971382 0.27814593911 0.24326744676 0.41772413254 0.22000689805 0.56860023737
          0.086807824671 0.10755956918 0.47024485469 0.37943148613 0.462374717 0.38869920373
          0.26914355159 0.34653303027 0.23152184486 0.56629133224 0.17219299078 0.14301134646
          0.56875997782 0.243117854 0.11620035768 0.079724393785 0.212333709 0.3812174499
          0.51232874393 0.34976512194 0.37693241239 0.56171214581 0.53389418125 0.092968478799
          0.16788583994 0.1749240309 0.2563354075 0.1296684891 0.29152840376 0.37798446417
          0.42682570219 0.30705934763 0.18005371094 0.33527335525 0.10766924173 0.24886776507
          0.18096293509 0.064628310502 0.51382642984 0.43590566516 0.39647057652 0.13487689197
          0.25863909721 0.086021594703 0.53112471104 0.55925172567 0.58882129192 0.47685816884
          0.57905679941 0.52668946981 0.36981570721 0.10424920171 0.39211857319 0.52179539204
          0.21090364456 0.35426771641 0.17275574803 0.25778001547 0.17777465284 0.22940139472
          0.07641607523 0.39651939273 0.33609634638 0.48678910732 0.26354619861 0.3046977818
          0.52508151531 0.14975327253 0.24440895021 0.27167505026 0.51312804222 0.22289222479
          0.41769203544 0.40373060107 0.19194993377 0.24856555462 0.10812628269 0.51989108324
          0.32827711105 0.49148255587 0.15905931592 0.44292891026 0.34090256691 0.40075448155
          0.28621175885 0.13425455987 0.11363325268 0.073551498353 0.47814998031 0.53054302931
          0.19967503846 0.57206505537 0.41128844023 0.16124483943 0.07398070395 0.31188723445
          0.42800304294 0.5802475214 0.2462335825 0.57466030121 0.45534580946 0.21824893355
          0.56274092197 0.24156989157 0.50441557169 0.41341817379 0.37931147218 0.56533026695
          0.3765925467 0.44366246462 0.14584249258 0.19088587165 0.59176379442 0.16160558164
          0.074428409338 0.076945237815 0.12237829715 0.29845619202 0.35826307535 0.1162423715
          0.4164955914 0.30698642135 0.17708198726 0.25657320023 0.51626127958 0.51329404116
          0.34582528472 0.083002708852 0.57294201851 0.51681733131 0.43354049325 0.15232813358
          0.3033619225 0.32696357369 0.31945723295 0.21556590497 0.50323319435 0.4945550859
          0.36243543029 0.50754565001 0.47520300746 0.56249850988 0.55535030365 0.56852406263
          0.44669419527 0.30524861813 0.3412334621 0.53945016861 0.17324121296 0.25469431281
          0.4436622858 0.33044925332 0.2070786804 0.092801995575 0.35556930304 0.2859094739
          0.19441905618 0.21670825779 0.58800661564 0.19808383286 0.45290565491 0.48897784948
          0.28019884229 0.38588711619 0.49272444844 0.36152645946 0.1607221663 0.074098594487
          0.23810507357 0.50660824776 0.29035466909 0.29005634785 0.33261439204 0.43552714586
          0.35318747163 0.16474737227 0.51843833923 0.14437015355 0.58591538668 0.18625718355
          0.39297938347 0.18285639584 0.53985190392 0.28660812974 0.4532931149 0.45590737462
          0.41595932841 0.19318774343 0.59252882004 0.34088781476 0.33122217655 0.55722671747
          0.26100328565 0.24399547279 0.2247466892 0.17365404963 0.4997703433 0.38857084513
          0.41497054696 0.44112077355 0.4318908453 0.1069714874 0.18076275289 0.19221055508
          0.27907627821 0.4764624238 0.32857385278 0.50401598215 0.15652488172 0.25267314911
          0.4802030623 0.52565300465 0.33039858937 0.1029721126 0.13025890291 0.060173556209
          0.37329170108 0.53036391735 0.2813308835 0.15017214417 0.13084478676 0.40563771129