<VTKFile type="UnstructuredGrid" version="1.0" byte_order="LittleEndian" header_type="UInt64">
  <UnstructuredGrid>
    <Piece NumberOfPoints="791" NumberOfCells="973">
      <PointData>
        <DataArray type="Float32" Name="ux" format="ascii" RangeMin="-30.568675995" RangeMax="30.723051071">
          -9.9253997803 3.9435532093 -0.7400047183 -11.629151344 4.2934150696 -1.4782676697
          -5.0277562141 1.4658983946 2.1266236305 1.1741416454 -5.4348983765 -0.61271989346
          0.11889474094 2.9609556198 -5.1665349007 -0.82409530878 0.95876890421 -0.83649158478
          -5.286093235 -2.3218109608 3.3696975708 3.0582635403 -4.1742420197 -2.7326672077
          -4.2337241173 -7.0334768295 4.4766597748 3.5502316952 -15.489587784 16.310503006
          6.3293943405 -30.568675995 28.61117363 20.372968674 23.568693161 -6.8300013542
          -0.81490159035 2.8625261784 -2.8442411423 0.76399421692 6.3295230865 -1.2759231329
          7.9770050049 -8.0735902786 -12.598215103 12.11046505 8.1944293976 -21.078212738
          -19.699396133 -2.7208449841 1.3587348461 9.9469575882 5.9453873634 4.4086761475
          1.0710711479 3.3398406506 7.1472411156 6.4107584953 1.8148901463 11.103714943
          1.8715035915 4.904984951 -0.085208430886 -3.9658896923 8.6115341187 -6.9853553772
          2.575139761 -7.4937024117 2.2806191444 11.631958961 -7.7354607582 1.5264452696
          1.4178524017 -0.60640156269 -2.1862716675 9.0576782227 -1.7113345861 -3.8663976192
          -15.020296097 8.523932457 5.1818809509 -5.8353648186 -10.346139908 -10.285384178
          4.8551893234 14.264361382 -8.4824142456 0.54670584202 -0.10663285851 -2.6616806984
          0.69629555941 2.3505485058 -6.465927124 -4.8702421188 -2.5987234116 0.74607127905
          4.511944294 -3.959656477 5.2624082565 4.2746315002 2.9266848564 9.6879177094
          -5.6385655403 7.7674322128 -0.45777472854 4.7938799858 -5.6522436142 -10.493024826
          -11.029270172 -11.140529633 -8.3127422333 -3.9409472942 2.4486055374 8.7827739716
          4.1495776176 9.7707433701 5.811671257 -3.2752914429 1.6351522207 0.046546243131
          -0.3571626544 -2.5679998398 1.7239859104 -1.8490068913 0.50471490622 0.68306106329
          2.0873703957 0.093454487622 5.4753022194 2.8516266346 6.6196432114 5.8762278557
          0.71186512709 1.3372460604 1.7652465105 -0.52486664057 0.60552179813 -4.9900546074
          -1.2137768269 0.1021316722 0.31130093336 -3.4671733379 7.1764059067 2.376761198
          -9.1028547287 -6.1599588394 -14.56370163 -3.3124046326 6.0694761276 -7.120595932
          -3.7134144306 1.9942481518 5.3255572319 0.21915605664 2.1935901642 1.6360536814
          -6.5076842308 1.0706710815 -2.5856649876 0.23079316318 -18.152126312 0.010698645376
          -0.60589700937 8.7621850967 24.79070282 -5.9724559784 1.5493401289 8.7011489868
          12.271489143 0.5348084569 2.2568876743 -4.6642107964 5.6974463463 -7.2371816635
          -6.2135334015 -6.8341670036 -19.083692551 -3.7327885628 -3.5160198212 5.6802039146
          12.487018585 -15.443660736 -1.1909897327 8.4011182785 10.837963104 -4.6705107689
          -0.19678403437 -2.5137627125 11.92564106 -4.6235637665 2.4774868488 -7.9577403069
          5.8120999336 -1.4094088078 1.1198017597 3.8854734898 -11.385783195 5.6383876801
          2.4604411125 -0.11715380847 -1.2034436464 -0.07244091481 3.2983350754 -0.33449959755
          -1.2217018604 4.5380468369 5.5614414215 -4.9834580421 14.341932297 -3.2468569279
          0.0089530302212 -2.713912487 -15.85811615 15.343031883 -0.47498887777 -6.0035557747
          -6.8797535896 3.9497489929 -0.16300290823 6.729133606 -13.62817955 5.5740714073
          -14.520004272 7.1911354065 -2.7154560089 -4.8558945656 -5.9472770691 0.22538411617
          9.7703037262 13.752040863 2.2127578259 -0.63002741337 -1.0587656498 1.5508180857
          0.65221071243 8.5030317307 -4.5034327507 4.0905723572 -4.9548659325 5.6205458641
          -10.921491623 -5.6975250244 -4.7198605537 -11.367048264 11.372196198 -4.9789500237
          -0.6290537715 -4.8109707832 1.3446161747 0.44241648912 3.8293714523 10.820807457
          6.8735489845 7.7255926132 -0.62853300571 3.2434754372 -14.198402405 -5.6423301697
          1.2022325993 -2.5302107334 12.8117733 -8.4621725082 2.6497323513 -1.9238839149
          -2.4932749271 -1.8907206059 3.0546529293 9.7561397552 17.329790115 -1.7248584032
          4.7881331444 3.078943491 -0.95779365301 -8.5741930008 6.3854293823 1.1936219931
          -6.0924844742 8.4533176422 1.9400542974 9.9673833847 2.2019784451 7.7291684151
          0.41300958395 -2.7061340809 -5.9278206825 6.18841362 6.8745164871 -5.0999016762
          0.80905491114 -7.0771126747 0.11634162068 -11.199723244 -8.1771316528 -10.706212997
          -1.6916339397 5.1862316132 -5.3227977753 3.2990922928 -2.1063563824 -2.27059865
          -1.7958763838 -6.8561086655 -8.9206466675 2.2666873932 4.5440659523 -4.3480606079
          -1.7898544073 -1.0000866652 -7.6114168167 12.099538803 1.7123780251 1.6313071251
          -6.4434971809 2.2346661091 -3.1705958843 -5.5886964798 -9.6739492416 1.6721550226
          -3.9791634083 -3.8493936062 -2.0847024918 2.7304661274 10.741462708 11.446899414
          -5.776061058 7.5584321022 3.1623625755 1.6847779751 -3.1029851437 -1.1568205357
          -1.4471398592 -2.2318375111 -4.9745402336 3.3072075844 -0.98417389393 -0.79137259722
          -2.1695454121 2.6707341671 4.884121418 5.7653112411 0.45174869895 -0.081684462726
          2.5207808018 -1.6364587545 -0.66696631908 -1.9868984222 1.0104900599 4.6073055267
          -15.551862717 14.433387756 16.811323166 -1.3644778728 -0.63137197495 -2.6332027912
          4.3227052689 -5.1627583504 5.1774334908 -15.105207443 -1.3720562458 4.7931637764
          9.0294551849 0.4681751132 -1.464900732 -7.797554493 -4.0801386833 4.6130037308
          0.0099416924641 -0.18002270162 -0.31543725729 -0.74705427885 -3.351380825 8.9026908875
          -9.835735321 -2.7715313435 -7.8919091225 -6.6978383064 10.394143105 10.864697456
          2.134313345 -3.6160919666 -1.2542564869 -0.84599858522 -4.8356819153 5.5721302032
          -0.535554111 -2.491771698 1.3139179945 -7.5332374573 1.0631551743 -7.1076235771
          -11.217438698 -6.1254954338 1.8374698162 -3.4415886402 9.3981714249 3.5497384071
          9.1539573669 10.337579727 2.7119829655 4.2988495827 -2.9090075493 -8.1021738052
          -3.0895740986 13.652907372 -16.852207184 4.6977615356 -3.8616654873 1.8865983486
          1.8396983147 -4.4322142601 -3.6198837757 -15.807365417 4.6021900177 0.0037833368406
          1.11870718 0.34850689769 3.6151611805 -2.3703482151 6.4881029129 19.622770309
          -15.730464935 -3.7349867821 7.0060153008 -3.3147318363 1.6784279346 10.569644928
          4.5798044205 -9.8873844147 6.9042224884 -0.44790771604 -1.2615272999 -1.5726547241
          0.62205708027 -1.8601814508 -2.9166975021 12.095537186 -7.7561597824 -3.2901127338
          4.3726086617 7.117866993 4.2578229904 -4.4688019753 -0.16558486223 -12.63000679
          10.857298851 3.6665422916 -2.8237309456 7.2803325653 -4.6273155212 -1.9022251368
          -7.6272964478 0.44822767377 -12.359575272 -1.1882297993 3.6734244823 -9.5937309265
          1.4942495823 -18.942077637 2.0822637081 -6.0116972923 4.7174406052 -1.0022873878
          3.6712348461 11.618373871 0.60561591387 -5.5727419853 2.4817168713 1.3353123665
          1.1296617985 -4.1766591072 1.1551938057 -12.444472313 3.9619016647 -4.799120903
          11.328827858 6.5410690308 1.194293499 -2.3455398083 -0.94609248638 -0.13225060701
          -1.6012452841 -1.2273831367 1.6796901226 10.679806709 1.2575494051 8.7627468109
          0.60359025002 6.3823246956 0.8952716589 3.776913166 8.2578725815 10.109508514
          -3.7984004021 1.4120414257 4.9515428543 0.32391557097 2.9356253147 1.1269325018
          -4.125582695 4.8861894608 -2.5717926025 -4.8864498138 -5.2534613609 13.750361443
          4.7150120735 -6.134390831 -1.1703522205 4.9578728676 -2.7636394501 2.7705645561
          5.5750832558 0.66940951347 1.0100569725 4.6594824791 -5.3970141411 -1.310836792
          -9.167675972 -8.7565393448 -3.4861595631 7.632106781 -3.6568543911 -10.285627365
          -5.5921025276 -11.342388153 -5.2059278488 2.0361750126 -1.6078617573 4.7974953651
          -2.2313518524 -3.4192562103 0.67251867056 -2.8265762329 -2.0039982796 -9.7826738358
          -4.1592750549 1.1497683525 0.88146132231 -3.1166481972 0.051742680371 3.4081659317
          0.74346989393 4.1593933105 -5.2283143997 -1.9415202141 -1.8827666044 -0.82036405802
          -1.172940135 17.085092545 -13.862836838 8.8819894791 -4.9304141998 5.4684729576
          -2.2534861565 0.34545847774 0.39692014456 -13.916904449 7.1229372025 -0.45407348871
          3.1583693027 1.8189109564 6.8209762573 -1.6622415781 -6.3700771332 7.5495715141
          -6.62231493 9.9813804626 -6.0227060318 -0.56490105391 -3.7287065983 4.6039876938
          2.3101601601 -11.814599037 6.9073090553 4.4985046387 5.5468711853 -1.1280504465
          9.6757974625 -2.4641859531 -5.1676802635 1.3875254393 1.7611583471 -10.516345978
          -0.66819602251 15.761884689 4.0308141708 2.7566435337 -4.0790896416 -10.69751358
          3.947486639 9.7419023514 -5.2028961182 1.369437933 -2.9193146229 5.1516318321
          1.2176288366 -7.6480054855 0.18474283814 -14.752329826 0.43105086684 8.8363218307
          9.6902503967 0.78821253777 -0.27742877603 5.3521094322 -5.2075858116 9.9521856308
          -5.8380699158 3.5094475746 -4.0821666718 5.7434506416 -1.2267895937 -0.34481233358
          8.595451355 -1.8501070738 -3.1475219727 2.5924007893 7.2628283501 -2.4954741001
          0.62704658508 6.6732025146 -10.585425377 5.1951112747 -8.3337135315 1.2640305758
          -3.8860676289 6.790699482 -3.8637740612 11.250173569 0.48305943608 17.102212906
          -0.9824899435 2.1427476406 -3.2470266819 -7.4300537109 -6.123939991 -15.62717247
          -0.37411803007 -2.5087599754 -5.4061236382 -0.563986063 4.4557852745 -3.5238978863
          -6.2940545082 8.2816677094 3.1028153896 30.723051071 -10.48636055 13.732178688
          -6.54286623 -4.7322130203 -10.280174255 -21.540613174 1.6187287569 -1.4614913464
          -1.1231348515 0.49054017663 8.9784851074 -5.2880063057 2.4723231792 9.8780994415
          2.9331457615 5.0463342667 -3.2029910088 6.9714689255 6.3834939003 -0.731153965
          -3.9930472374 -2.5210635662 3.1699154377 -2.7445464134 -4.3321242332 -7.6306242943
          -3.0839788914 5.4022078514 3.7160089016 2.5191516876 -3.7280600071 -5.9577217102
          4.3583774567 3.5868666172 0.6287842989 -3.8465175629 -3.2458159924 -8.0719556808
          6.5336546898 -3.5198526382 -3.2570412159 -2.0731458664 -2.1855535507 -0.21306547523
          -2.9098782539 9.1664524078 5.9770331383 16.10377121 -3.7403485775 -8.1484422684
          -0.47595047951 -1.7416594028 0.11650764197 -7.2137680054 -14.277902603 1.7119090557
          -1.4406837225 -1.5615699291 -5.1583161354 6.6052527428 0.048095379025 0.09828222543
          -2.8363747597 -7.3753256798 -8.6239881516 -4.2389278412 -0.15221403539 11.35730648
          4.9244031906 8.6579236984 9.8860788345 7.0456972122 6.2834148407 2.6408517361
          -4.5181241035 -8.3496274948 -6.7195944786 -4.4847707748 -1.0384110212 -9.1503982544
          -0.42318698764 -1.3332643509 2.1784155369 -7.3246088028 -3.1653404236 1.810667038
          -11.841373444 -3.9392297268 0.37938570976 -2.0097112656 5.20515728 3.1828083992
          -7.5313744545 13.471187592 9.7699451447 7.1657829285 -0.16067253053 7.1776108742
          1.3145644665 -14.226703644 -8.8694238663 -17.958566666 -0.99935978651 4.6093688011
          -0.27249091864 -6.352449894 13.603691101 10.91209507 14.592417717 5.7669038773
          15.921463013 6.5825381279 -0.076680183411 -7.8942232132 -9.5189590454 0.59343165159
          7.5286254883 -3.2110812664 6.6753869057 11.064799309 2.7275867462 18.654651642
          8.7759971619 17.470567703 10.882925034 -6.035446167 -11.998722076 -9.8773984909
          -8.2857131958 -4.732960701 -1.8840554953 -6.2761945724 0 0
          0 0 0 0 0 0
          0 0 0 0 0
        </DataArray>
        <DataArray type="Float32" Name="uy" format="ascii" RangeMin="-53.344558716" RangeMax="30.766387939">
          -10.09436512 0.30841949582 -6.5582695007 -12.616397858 4.2079639435 -13.205368042
          8.9724168777 -4.8582601547 -0.90045833588 7.2902202606 -35.00019455 -5.9958019257
          -10.52538681 13.804279327 -6.3486013412 2.6187539101 3.697412014 0.78840446472
          -4.0200834274 -10.54091835 -25.64443779 12.720937729 16.166038513 0.1439230144
          -3.7974820137 0.49343577027 30.766387939 -9.4512548447 -11.189332962 7.5090060234
          -9.3012075424 -15.917778969 6.0819730759 -4.4052557945 2.2216050625 2.201182127
          -0.75048792362 -6.5065116882 3.4144966602 -10.211213112 -6.9804830551 8.3833436966
          -21.112369537 7.1933112144 6.2531309128 7.3914895058 16.824613571 -3.6941421032
          4.5025963783 5.4499340057 8.7670640945 -7.2768640518 -1.6665648222 3.7448439598
          3.2169036865 -10.112370491 -4.9301891327 -0.89072102308 2.6129229069 -7.805024147
          7.6757087708 -1.9178251028 -19.684732437 2.7909579277 4.221850872 1.9962102175
          -7.1632370949 5.7830519676 7.2479724884 -0.42670157552 -2.669321537 1.7421870232
          3.5643591881 9.5827274323 -11.422702789 3.5232517719 8.729344368 1.6153862476
          11.401407242 -8.0804576874 7.7828731537 8.3029375076 -4.9841308594 5.3165369034
          1.6376450062 12.766937256 3.3493030071 8.8105611801 -0.32500934601 2.7072217464
          -1.1038719416 1.4611655474 18.052734375 4.1027259827 -10.123142242 -0.33139139414
          -5.2453527451 2.7630758286 -8.6575088501 -1.0795050859 -4.4936485291 3.7817783356
          9.2347831726 6.2297463417 -1.8321059942 -3.5664336681 -0.092438444495 -0.77922546864
          1.9236069918 0.084764100611 -21.208881378 4.1500477791 2.9864900112 -1.8802822828
          -20.417421341 -4.5976948738 7.1429457664 -22.690092087 12.477795601 2.2333738804
          1.3328171968 0.21010886133 2.8856050968 -3.0870630741 -4.1251382828 -1.808301568
          -8.9387292862 -1.8450534344 3.8414115906 1.3642953634 -9.3923177719 -1.3047860861
          9.521894455 -12.538990974 4.2387518883 1.5604522228 -0.84936285019 0.18145437539
          0.90548992157 3.3299334049 -1.2429857254 -3.6782505512 6.9527993202 -0.89262312651
          7.7062449455 2.3659603596 -12.353624344 -2.4142539501 19.005981445 -2.8536279202
          13.758781433 1.7340600491 2.3720066547 3.4938776493 4.6028842926 0.16777509451
          0.37818068266 -4.904654026 4.3268027306 1.1453970671 2.5663135052 -8.5085010529
          -3.8127758503 -6.9952263832 9.6192827225 -10.345032692 -0.19862356782 -0.12718768418
          7.4504761696 8.1613512039 1.2638421059 1.1770008802 -0.59859859943 -8.2089328766
          -1.3191814423 -1.5614382029 6.3851671219 -2.6357917786 12.207056046 -2.813577652
          12.173339844 -16.144014359 -7.3700866699 -2.8064348698 12.8897686 3.6591937542
          -2.0173323154 3.6692991257 1.0953037739 -8.3644723892 -11.103348732 8.2073831558
          -3.0762336254 -7.5430874825 -17.569396973 -3.4802503586 11.200424194 -6.9683303833
          -0.25402289629 -10.41403389 -7.5107979774 2.9862508774 -9.0197696686 3.9194734097
          -1.3477609158 -0.58660626411 -8.1411952972 7.4329881668 -7.7389974594 -1.9535667896
          -11.412075043 -0.15529514849 1.481441617 0.098564855754 2.0697641373 -8.8489589691
          -12.540899277 -1.5472301245 -0.34094548225 2.1585273743 -8.5503931046 2.7499694824
          13.178807259 -10.05292511 15.837301254 13.291808128 8.0645675659 10.617251396
          -0.26659494638 4.5415024757 5.6871161461 4.5852560997 -2.7751882076 0.51128047705
          6.8027319908 -2.2398204803 -7.5370178223 -0.16085533798 5.5089206696 -8.4322509766
          9.9985780716 8.180893898 5.0727596283 7.8589644432 0.03386541456 -3.6148943901
          0.32460057735 2.7241346836 5.0883936882 -1.4487415552 -1.8461126089 -3.2872431278
          -7.6831998825 -4.4416365623 5.1220464706 -6.7017426491 4.8447051048 1.7629396915
          13.104034424 2.9045274258 -6.8680205345 1.2571707964 -3.9703240395 0.76426023245
          -1.1741873026 -5.2442016602 -3.228281498 -4.5297527313 6.0991420746 -6.6482830048
          -7.658039093 -3.8739235401 -2.8222162724 5.3837490082 8.2910404205 4.1804037094
          -5.3137631416 12.581129074 -0.64044559002 0.61971378326 -4.1455044746 -5.2245898247
          -10.204440117 3.6863503456 3.3005664349 4.6422066689 -4.3252224922 8.0205450058
          -17.962528229 11.965869904 17.223901749 8.8247756958 11.321113586 10.914113045
          -7.7356157303 -2.9391171932 -5.197804451 -5.5525460243 8.1831254959 4.1790618896
          5.4532194138 3.6172020435 -4.0482106209 2.0832979679 -12.807621956 5.0216121674
          1.0486879349 6.4023952484 -7.9937710762 9.9723625183 2.9918198586 -1.0518100262
          -10.08955574 -5.0799541473 4.7740459442 -6.0881276131 0.66616380215 1.687558651
          -9.4250268936 14.03418541 -6.848941803 1.5880653858 -6.1553063393 -4.0018830299
          -1.5744642019 -2.8591265678 3.7619512081 -2.6359875202 -7.1003623009 3.5905852318
          -6.6039743423 -0.29708340764 -2.4700162411 1.9745154381 2.569766283 4.1425561905
          -1.355229497 -2.9238007069 -3.0809807777 -2.523280859 1.9607950449 -6.9604406357
          -0.24591138959 -3.5610361099 -0.65619838238 2.6576373577 0.33037874103 -3.7079510689
          4.1303877831 -2.7224173546 -8.8807621002 9.5267372131 -2.8674399853 0.15888261795
          -31.797599792 -3.4463174343 29.680593491 -8.8789863586 4.8915324211 3.5478036404
          9.8894958496 9.5555648804 -1.3460371494 1.6162201166 1.5419328213 -3.872241497
          6.8401908875 -1.7221559286 4.3327155113 -5.2093710899 -11.643906593 -2.6733801365
          -0.15200518072 0.10360587388 -2.9403367043 1.6015042067 -5.0041418076 11.77283287
          -0.89343851805 -4.7095589638 9.7406635284 3.8718338013 4.8488717079 9.623298645
          2.5692577362 12.823508263 3.2221336365 2.4455032349 -4.0136170387 -11.011433601
          12.51404953 11.211196899 1.5310436487 3.1744022369 1.2961906195 2.7722074986
          -9.4647598267 -13.511025429 -0.058354120702 -7.9088435173 -0.3294185698 5.5716481209
          0.52793228626 -1.7991777658 6.7075066566 12.824175835 -5.4600782394 1.5626615286
          -2.4628229141 -6.5249390602 -1.5968486071 9.2911148071 -7.4770617485 4.1796278954
          -0.11949387938 -0.4223061502 -1.6943895817 9.0412693024 -1.2127332687 -12.537120819
          5.3304553032 3.2595992088 -0.65661984682 -6.2870249748 -10.200799942 -10.388800621
          -7.8551263809 12.578854561 -4.6479072571 -3.9370353222 -5.2935900688 -2.0968873501
          -4.1642513275 10.726813316 4.7545986176 4.9540400505 4.1759476662 5.9401888847
          1.2870438099 -9.1040630341 -2.1595201492 -14.163396835 0.5322920084 4.7908434868
          11.10555172 6.2931237221 2.2414929867 -3.9521057606 -3.5559914112 6.7423024178
          -3.6978838444 9.7294111252 5.9934177399 -8.4601831436 9.9355659485 -17.174470901
          -5.4107203484 -26.86464119 1.9497364759 5.0540704727 3.093780756 5.4833865166
          -1.9789212942 -8.3605461121 0.093189693987 -3.8347184658 5.4068698883 14.307375908
          2.6908903122 -2.3314192295 12.193239212 -15.399449348 0.66659998894 -2.1191523075
          0.46038356423 5.9891571999 8.2741127014 5.1381597519 -2.4397723675 -2.3130455017
          4.9054145813 0.38461300731 -1.4153591394 1.7871562243 1.2369647026 -3.0646841526
          5.6008591652 3.7109045982 4.7895059586 17.427602768 0.385083884 -7.1375002861
          3.6501574516 -6.4670810699 0.70104509592 -0.68014740944 3.4701209068 -5.6717419624
          -12.138331413 -5.5833616257 -3.4796538353 -4.2499227524 -3.9425244331 1.8207358122
          -0.19003017247 8.6994953156 -2.6958060265 -18.284765244 6.2165446281 0.065781675279
          0.10971599072 3.8244636059 -1.7943762541 -9.5100107193 -5.7573461533 -4.1628627777
          6.5709414482 4.4150152206 2.8375647068 -11.74864769 0.14700080454 10.67919445
          -5.2229671478 -6.3648443222 10.89389801 -5.2308239937 3.481300354 -5.5679535866
          0.6510707736 1.6793497801 -1.1016820669 -9.561923027 3.5153019428 9.755531311
          3.8241417408 -23.471487045 6.4972290993 10.117265701 -3.1981847286 5.1519417763
          15.025314331 -7.8215718269 3.2402179241 -6.6723680496 3.1243627071 0.16811490059
          -5.6422343254 -26.013214111 0.44783470035 9.1348438263 -9.7519283295 -4.5920710564
          2.740073204 1.4175578356 -1.2628170252 3.8143181801 1.7783790827 -3.6034641266
          6.9960594177 1.0291062593 5.7581982613 5.4844617844 -8.6738977432 -14.095684052
          -1.0652612448 0.29344645143 -10.159173012 11.55837059 0.13633011281 -10.304120064
          -1.0627267361 3.6476767063 -8.673374176 -0.29091960192 8.3878087997 12.366531372
          5.5203671455 -0.16395291686 4.0926537514 2.4526228905 3.6922676563 -5.3770232201
          6.2071771622 -5.40579319 -0.7028157711 -10.005583763 -2.7726421356 -3.7150788307
          0.29898294806 -2.405002594 7.8553023338 4.7288408279 2.1955754757 -3.8742520809
          4.3491768837 1.5627764463 -0.98119264841 1.6386047602 7.5976014137 -9.0873317719
          2.9374706745 -4.0852684975 1.6807646751 -4.6297006607 26.105041504 -0.35195115209
          10.826072693 -2.5619771481 0.20964340866 -6.4965906143 -2.8276748657 9.9548711777
          -2.7569887638 -4.5950775146 4.1049194336 -6.8853039742 6.6001639366 2.1977443695
          0.70108109713 -6.0439295769 25.82660675 3.2061994076 10.785852432 -0.89974141121
          -0.80453145504 -10.784074783 -3.494799614 9.2071781158 -4.4160151482 13.720555305
          -4.2749209404 6.6279497147 0.13616378605 -6.0566701889 -8.7466268539 0.3269701004
          0.28816351295 15.556537628 -2.6341052055 -0.36607208848 -0.09201721102 -2.5761833191
          -6.9683456421 1.0431653261 -3.8331096172 20.517318726 -17.836853027 11.367700577
          -6.9974412918 -8.3255815506 -8.6966238022 -15.081812859 -16.513011932 12.52973938
          -9.1809940338 0.14632028341 -5.8218412399 -8.9802999496 -4.2390346527 9.8007822037
          -2.6884353161 14.050701141 -5.5536928177 11.56324482 -4.7999072075 -7.4742898941
          -0.098071917892 3.2056524754 -7.13778162 12.288469315 -7.1812810898 8.5171451569
          -1.6783835888 -4.3885483742 0.2838833034 -0.96543359756 -0.99107933044 4.6572737694
          2.2123219967 2.8841269016 -2.0934400558 0.254665941 0.70174962282 4.5335025787
          -2.2795600891 -0.32093983889 -0.93697792292 2.6079804897 -1.7237194777 1.6537531614
          -10.654730797 -2.3515589237 -9.0365953445 -5.7432832718 -7.2193441391 4.3526883125
          10.116757393 3.2609491348 7.8347220421 -1.2874953747 1.6207325459 3.1224126816
          2.6431868076 0.48194903135 3.1459403038 -8.3384542465 2.9378454685 12.274446487
          3.7850394249 11.95584774 -6.1631546021 5.3186535835 1.9631249905 10.801861763
          16.994787216 -3.2636306286 3.6167674065 1.7277163267 0.62330800295 12.771426201
          1.1866842508 19.095722198 -17.968463898 -8.0822439194 13.566001892 12.398200989
          -17.859754562 4.4941120148 -16.031694412 -4.1161003113 23.391248703 5.3006634712
          -53.344558716 -0.41127547622 27.210494995 -22.900066376 -13.506416321 7.985874176
          -4.8663902283 -8.4341316223 18.607694626 -6.7646479607 4.7365694046 -1.4927141666
          -5.7275090218 -7.7582864761 -10.153647423 -5.7099304199 0.71172755957 1.0386570692
          -15.221768379 -3.8856294155 7.7348971367 -14.628365517 1.1150407791 3.0073242188
          -13.703690529 3.7576694489 16.678318024 -9.7448196411 -1.3347141743 17.570188522
          21.411771774 -11.26219368 7.9331693649 19.563812256 -27.930366516 12.654371262
          -0.91011857986 14.606695175 8.4094715118 -6.2073111534 4.0350031853 29.078157425
          -5.8450460434 15.196401596 1.9680474997 16.360202789 0 0
          0 0 0 0 0 0
          0 0 0 0 0
        </DataArray>
        <DataArray type="Float32" Name="uz" format="ascii" RangeMin="-21.42575264" RangeMax="18.959085464">
          -14.501808167 10.012635231 4.7104244232 1.6346384287 1.4574660063 10.640864372
          0.7657841444 -3.0923826694 3.2436380386 -4.359600544 -3.9670844078 -1.2470114231
          1.1375505924 0.80316781998 -3.9877347946 -7.1648387909 3.1499361992 -3.2592451572
          -5.3809218407 -1.6343047619 -4.9481019974 2.8300545216 4.1765985489 1.8105655909
          1.9236329794 -3.4201283455 -6.0372095108 -0.27584192157 -5.1902394295 -2.9119606018
          4.5898146629 4.5550074577 -7.406976223 -3.255610466 3.9125208855 0.92095327377
          5.9764847755 -14.485559464 -4.3062062263 -7.5729694366 -2.7170803547 6.622256279
          2.6368842125 -5.266242981 4.4504685402 -6.5127849579 0.02963777259 -10.238854408
          -2.1908311844 -1.6098231077 0.15055944026 -9.9332695007 -6.1590013504 -3.8845765591
          -6.4753537178 -1.873681426 -0.51541078091 -4.0521197319 -2.1953766346 -0.11477229744
          -4.6408982277 -1.798525095 -2.0675082207 0.19618675113 -11.304066658 -1.2240378857
          -3.0218575001 -6.4688386917 0.25115403533 -3.6638543606 3.9745368958 -5.1824045181
          1.3417000771 2.4501326084 -0.74844413996 3.6331176758 -1.0257542133 3.1768767834
          4.7458724976 0.53072422743 1.0358681679 6.6398620605 7.0854301453 0.39462026954
          3.967446804 4.2279992104 4.4150362015 1.0868654251 5.7260947227 6.169675827
          2.8252358437 6.2806501389 6.3272585869 5.6705832481 8.0393505096 0.31178376079
          10.918302536 4.6441121101 1.9914195538 5.8579630852 3.1430618763 12.829421997
          0.2614839375 8.9645614624 9.3311538696 7.981338501 2.4353692532 2.3292644024
          2.636646986 0.97430199385 4.2341227531 1.072152257 -2.7344837189 -5.2848815918
          -3.5065112114 -1.5657790899 -0.026844045147 4.8850579262 -1.7529656887 2.0988881588
          2.7359626293 4.2280349731 1.0219545364 3.6167361736 12.461340904 3.4701666832
          9.4272565842 0.84863710403 -3.2746200562 -9.6513395309 1.8006719351 -6.5125026703
          7.1949920654 0.99538564682 -1.3204725981 -2.2956242561 1.204262495 0.51439923048
          4.5031199455 -0.70227324963 11.078883171 4.6795573235 -0.065401390195 -3.9311070442
          -3.5426309109 -8.1577320099 2.8533947468 -5.4066329002 3.772601366 1.8363710642
          0.14092928171 1.2071709633 2.4807386398 -2.5584545135 9.2988405228 -0.98492914438
          -1.0570880175 2.1024122238 -4.1746435165 -4.1506662369 -8.6189508438 -9.8544187546
          -11.359547615 -3.9779272079 -8.505613327 -0.92156410217 -4.510365963 1.5925377607
          2.0893211365 -2.801517725 0.97737312317 3.2654139996 -1.6940057278 2.2998321056
          1.4601022005 2.994178772 -8.3923692703 -6.458231926 -8.7713279724 -1.8783283234
          -3.6829795837 -2.8741745949 -3.9863593578 -0.59152424335 -0.77761298418 1.0791018009
          -0.44362604618 -1.5355956554 -5.3302083015 -1.9701533318 0.28171184659 2.237288475
          -6.021065712 1.847610116 -0.55839931965 -2.2263584137 -0.81820195913 -5.823076725
          4.3176465034 -3.451281786 -0.45302286744 3.3800604343 2.466012001 -2.2286047935
          2.2883939743 -0.11649223417 -5.0204162598 -4.0439586639 5.4952840805 7.4815268517
          11.660394669 0.40905669332 2.7857532501 -3.5104498863 6.7617101669 -0.57878029346
          -2.2827217579 -4.5509290695 3.627156496 -8.6553792953 -6.6916408539 -5.971988678
          -10.504812241 -6.239262104 11.144698143 8.0728740692 10.067644119 4.0830931664
          1.6561050415 2.5400857925 3.6901240349 4.1581091881 -1.6150337458 -6.9587049484
          -3.8972887993 -4.6943182945 -1.1956797838 -5.0644817352 5.2405042648 0.62758052349
          16.525022507 6.0591001511 7.9399123192 3.6675152779 4.8035612106 10.091982841
          2.2559630871 5.4700093269 2.5938622952 3.5106143951 -2.8873531818 -5.388417244
          -9.6567363739 -1.8467211723 -5.5705423355 -1.7176946402 2.2776918411 -6.4867482185
          -11.971099854 3.2114944458 -7.1369886398 3.9963645935 -7.3528137207 5.2732644081
          0.64070951939 -0.39418068528 -4.9734563828 -1.553368926 -7.2076778412 -2.6986341476
          -2.911175251 1.0322412252 -5.1810541153 -5.4085998535 -8.5313358307 -1.3620003462
          -4.7187314034 0.47587034106 -3.3786656857 0.78220266104 -0.94781917334 0.76142579317
          -2.7894494534 6.2580361366 7.6842813492 4.668387413 11.604394913 2.1595880985
          -7.3340415955 -3.5093817711 2.7866191864 -3.4604218006 6.3937439919 3.709102869
          1.4438378811 -1.4760941267 2.5490581989 4.9067225456 6.2870335579 0.16798423231
          4.2706437111 0.46616503596 7.5982441902 1.8458755016 -4.4182291031 -5.4114952087
          -2.6943731308 -5.8095421791 0.65246045589 6.0136938095 1.7171120644 -3.0387275219
          4.7474884987 6.1821479797 3.6974272728 -2.8912973404 -9.2953414917 -6.2428216934
          8.8248262405 2.9927408695 -2.9248180389 -6.2525773048 -6.7586474419 -4.2743740082
          0.5424323678 11.094280243 -4.3581795692 0.56991916895 4.2331991196 7.9288930893
          -7.212105751 -1.4631285667 -5.5002889633 -2.6644616127 2.3764586449 0.82996219397
          0.76770365238 -0.34880778193 -1.9802818298 0.05122256279 1.4616076946 6.4517245293
          -1.4998754263 2.6275441647 2.5060167313 2.9563331604 -4.4257054329 8.5365934372
          12.168362617 -6.7359457016 7.9096016884 11.849321365 0.74157172441 3.9366760254
          -1.9850661755 -2.687640667 2.4713618755 7.6731314659 2.199934721 -5.3889603615
          -7.0799689293 7.5095062256 1.9189001322 3.3728373051 6.3915371895 -8.6599636078
          8.6368618011 -7.0242238045 -1.7902486324 1.0163761377 1.058945775 5.0327067375