<VTKFile type="UnstructuredGrid" version="1.0" byte_order="LittleEndian" header_type="UInt64">
  <UnstructuredGrid>
    <Piece NumberOfPoints="791" NumberOfCells="973">
      <PointData>
        <DataArray type="Float32" Name="ux" format="ascii" RangeMin="-0.048213992268" RangeMax="0.048121642321">
          0.0002558985434 -0.00076998624718 0.0016629340826 -5.7330060372e-05 -0.00036160033778 -0.0017749574035
          0.00066315685399 -0.00036997068673 -0.0022110478021 -0.00087783823255 -5.2232731832e-05 0.0021160710603
          0.00025908628595 0.00077327701729 0.0021918329876 0.00098119932227 -0.0022975541651 -0.0010927210096
          -0.0022061150521 -5.4295840528e-05 0.0020957370289 -0.0037099905312 0.003607887309 -0.0037495610304
          -5.592890011e-05 0.0036444894504 -5.5471191445e-05 -0.011832689866 0.00592124369 0.012168114074
          -0.011490317062 0.0056820986792 0.011756994762 -0.014666719362 -0.014086510055 -0.030293641612
          -0.029068527743 0.0053657861426 0.027267768979 0.017929581925 0.0050015477464 0.025337297469
          0.017006428912 0.010095130652 0.009157913737 0.00015455395624 0.00013004316133 -0.013772194274
          -0.012983308174 0.03569778055 0.033870600164 -0.0098083587363 -0.0089923087507 -0.026912946254
          -0.025006081909 -0.035386689007 -0.033587943763 0.030560366809 0.029259517789 -0.012037551962
          0.0060358764604 0.012335643172 -0.015060022473 -0.030903089792 0.0055600064807 0.028378844261
          0.018448255956 0.010576732457 0.00013898253383 -0.014289882965 0.036753784865 -0.010327902623
          -0.028064383194 -0.03647274524 0.031146420166 -0.012172695249 0.0060877278447 0.012357744388
          -0.015473848209 -0.031470242888 0.005777345039 0.029796076939 0.019009349868 0.011202006601
          8.5699743067e-05 -0.014972388744 0.037936966866 -0.011047422886 -0.029600109905 -0.03776389733
          0.031617194414 -0.01225929521 0.0060900854878 0.012277225032 -0.015859914944 -0.031893324107
          0.0059682456776 0.031185269356 0.019496697932 0.011825048365 6.3650650191e-06 -0.015663264319
          0.038985911757 -0.011820161715 -0.031163083389 -0.038972023875 0.031897209585 -0.012306902558
          0.0060562496074 0.012126662768 -0.016217704862 -0.032227903605 0.0061433450319 0.032567180693
          0.019936701283 0.012448905967 -8.8090797362e-05 -0.016359135509 0.039961937815 -0.012621715665
          -0.032750286162 -0.040137816221 0.032058753073 -0.012337866239 0.0060088005848 0.011951490305
          -0.016553770751 -0.032511886209 0.0063046766445 0.03389184922 0.020340483636 0.013048781082
          -0.00018657956389 -0.017033025622 0.040867343545 -0.013407681137 -0.034288417548 -0.041240990162
          0.032161921263 -0.012370319106 0.0059652207419 0.011791545898 -0.016868473962 -0.032782658935
          0.0064539341256 0.035121411085 0.020716670901 0.013604404405 -0.0002785018587 -0.017659788951
          0.041711613536 -0.014137098566 -0.035716995597 -0.042269799858 0.032263755798 -0.012421164662
          0.0059428364038 0.011684053577 -0.017164047807 -0.03307422623 0.0065934769809 0.036221016198
          0.021074831486 0.014097636566 -0.00035405121162 -0.018217276782 0.042503327131 -0.014772946015
          -0.0369804129 -0.043213203549 0.03241667524 -0.012503824197 0.0059552150778 0.011658639647
          -0.017441669479 -0.033413674682 0.0067248009145 0.037162084132 0.02142194286 0.014513402246
          -0.000405422732 -0.01868728362 0.043248824775 -0.015285187401 -0.038033545017 -0.04406189546
          0.032662499696 -0.012626646087 0.0060124001466 0.01173636131 -0.017701324075 -0.03381845355
          0.0068496740423 0.037925396115 0.021763436496 0.014842037112 -0.00042648956878 -0.019056417048
          0.043952807784 -0.015652365983 -0.038844238967 -0.044808212668 0.033030375838 -0.01279285457
          0.0061194850132 0.011927294545 -0.017942270264 -0.034295793623 0.006969387643 0.038502220064
          0.022102108225 0.015079461969 -0.00041385620716 -0.019317755476 0.04461748898 -0.0158638414
          -0.039396766573 -0.045447710901 0.033533904701 -0.012999389321 0.0062767234631 0.012230159715
          -0.018162401393 -0.03484094888 0.0070852269419 0.038895752281 0.02243841067 0.015228243545
          -0.00036660404294 -0.019470825791 0.045242916793 -0.015920214355 -0.039692480117 -0.045978520066
          0.034170281142 -0.01323670987 0.0064794048667 0.012632030994 -0.018357988447 -0.035436719656
          0.0071983644739 0.039120741189 0.022770157084 0.015297351405 -0.00028636146453 -0.019521599635
          0.045826211572 -0.0158335343 -0.039749894291 -0.046401049942 0.034919571131 -0.013489122503
          0.0067182667553 0.013109131716 -0.018523871899 -0.036054279655 0.0073102680035 0.03920379281
          0.023093111813 0.015302603133 -0.00017687087529 -0.019482040778 0.046362716705 -0.015626372769
          -0.039603926241 -0.046718213707 0.035746172071 -0.013735216111 0.0069801649079 0.013628165238
          -0.018653305247 -0.036654159427 0.0074226548895 0.039181973785 0.023401288316 0.01526562497
          -4.3748517783e-05 -0.019369417801 0.046846050769 -0.015330769122 -0.039303913713 -0.046934809536
          0.036600597203 -0.013948321342 0.0072497325018 0.014149129391 -0.018737910315 -0.037187915295
          0.0075380951166 0.039101697505 0.023688154295 0.015213616192 0.00010667723109 -0.019204616547
          0.047269433737 -0.014985864051 -0.038910556585 -0.047056924552 0.03742313385 -0.014096016064
          0.0075104194693 0.014627141878 -0.018765786663 -0.03759784624 0.0076616741717 0.039018511772
          0.023947829381 0.015179864131 0.00026870466536 -0.019010564312 0.047626856714 -0.014635166153
          -0.038492307067 -0.047089904547 0.038146272302 -0.014144800603 0.007746623829 0.015016751364
          -0.018726019189 -0.037824608386 0.0077979099005 0.038989655674 0.024174692109 0.015198746696
          0.00043683027616 -0.018809009343 0.047912511975 -0.014322986826 -0.038119126111 -0.047038987279
          0.038701370358 -0.014053141698 0.0079403733835 0.015266297385 -0.018600678071 -0.037795681506
          0.0079560941085 0.039084296674 0.024364216253 0.015313123353 0.00060676800786 -0.018626147881
          0.048121642321 -0.014099113643 -0.037871494889 -0.046908136457 0.03900995478 -0.0071077411994
          0.0035190570634 0.0070978933945 -0.0090862335637 -0.018780469894 0.0033040083945 0.016964379698
          0.011060786434 0.0062224124558 2.1836027372e-05 -0.0086668198928 0.022248717025 -0.0061316988431
          -0.0168572478 -0.022083466873 0.01878734678 0.00053622329142 0.003118207911 0.0013480255147
          -1.3309348105e-05 -0.0014611156657 -0.0012939836597 -0.0032104984857 0.011407447979 -0.0057660900056
          -0.011840768158 0.011761639267 -0.0059927254915 -0.012239678763 0.014002897777 0.014595795423
          0.02898694016 0.03022268787 -0.0050854361616 -0.025421043858 -0.017090257257 -0.00543725444
          -0.027339775115 -0.01800143905 -0.0092415958643 -0.010166673921 -0.00021448776533 -0.00022577663185
          0.012899148278 0.013701346703 -0.033953413367 -0.035770412534 0.0089088492095 0.0097373099998
          0.024923561141 0.026842121035 0.033506944776 0.035315752029 -0.02934217453 -0.030632972717
          0.011981338263 -0.0060926740989 -0.012392564677 0.01500372123 0.030847270042 -0.0056167868897
          -0.028436241671 -0.018505424261 -0.01063355431 -0.00019568974676 0.014233509079 -0.036811418831
          0.010271560401 0.02800834924 0.036416936666 -0.031203825027 0.012133554555 -0.0061274799518
          -0.012397650629 0.015434690751 0.031431563199 -0.0058171073906 -0.029836451635 -0.019049491733
          -0.011241860688 -0.0001253032533 0.014933179133 -0.037977661937 0.011008108966 0.029561210424
          0.037725243717 -0.031657733023 0.012238637544 -0.0061113913544 -0.012298730202 0.015839327127
          0.031873296946 -0.00598953804 -0.031207371503 -0.019518444315 -0.01184651535 -2.7481608413e-05
          0.015642641112 -0.039008293301 0.01179939881 0.031142903492 0.038952138275 -0.031919382513
          0.012304985896 -0.0060588191263 -0.012129478157 0.016215957701 0.032226763666 -0.0061458810233
          -0.032570589334 -0.019939709455 -0.012451675721 8.5769534053e-05 0.016357386485 -0.03996559605
          0.012619788758 0.032749097794 0.040136940777 -0.032062191516 0.012354179285 -0.0059931869619
          -0.011936171912 0.016570305452 0.032529082149 -0.0062890932895 -0.033877298236 -0.020325403661
          -0.013033517636 0.00020244976622 0.017049549147 -0.040853023529 0.013423937373 0.034305587411
          0.041258532554 -0.032147340477 0.012402663939 -0.0059337923303 -0.011760547757 0.016901168972
          0.032816246152 -0.0064225713722 -0.035091478378 -0.020685981959 -0.013573524542 0.0003102812334
          0.017692457885 -0.041681949049 0.014169394039 0.035750590265 0.042303916067 -0.032233715057
          0.012465827167 -0.005899220705 -0.01164092496 0.017209129408 0.033120367676 -0.0065498980694
          -0.036179106683 -0.021032048389 -0.014054612257 0.0003981050977 0.018262388185 -0.04246173054
          0.014817645773 0.037026643753 0.043260011822 -0.032374639064 0.01255647745 -0.005903669633
          -0.011607619934 0.017494799569 0.033467896283 -0.0066732820123 -0.03711239621 -0.021371293813
          -0.01446247939 0.00045743287774 0.01874046959 -0.043199449778 0.015337965451 0.038087960333
          0.044116865844 -0.032612636685 0.012683345936 -0.0059569138102 -0.011681430973 0.017758527771
          0.033876847476 -0.0067942216992 -0.037871941924 -0.021708929911 -0.014787231572 0.00048247587983
          0.019113680348 -0.043899703771 0.015709180385 0.038902830333 0.044867422432 -0.032976727933
          0.012849120423 -0.0060646068305 -0.011873058975 0.017999105155 0.034353982657 -0.0069145318121
          -0.038449633867 -0.022048339248 -0.015025335364 0.00046928695519 0.019374646246 -0.044565327466
          0.015920227394 0.039455149323 0.045506805182 -0.033481132239 0.013050130568 -0.0062273540534
          -0.012181416154 0.018213706091 0.034893602133 -0.0070358593948 -0.038848575205 -0.022390102968
          -0.015179562382 0.00041655250243 0.01952220127 -0.045196134597 0.01597110182 0.039745319635
          0.046032063663 -0.034122943878 0.013276895508 -0.0064404369332 -0.012593611144 0.018398668617
          0.03547860682 -0.0071594524197 -0.039083797485 -0.022732164711 -0.015259102918 0.00032581482083
          0.019562322646 -0.045789591968 0.015873782337 0.039791941643 0.046443726867 -0.034882411361
          0.013514359482 -0.0066942935809 -0.013085687533 0.01854955405 0.036081176251 -0.0072863548994
          -0.039181869477 -0.023070136085 -0.015279323794 0.00020133210637 0.019507743418 -0.046341147274
          0.0156516321 0.039630942047 0.046745862812 -0.035724043846 0.013741675764 -0.0069751720876
          -0.013623749837 0.018660217524 0.036662437022 -0.0074177142233 -0.039179295301 -0.023397456855
          -0.015261339955 4.9270853197e-05 0.019376358017 -0.046843856573 0.015337273479 0.039312321693
          0.046943899244 -0.036597754806 0.013932995498 -0.0072668245994 -0.014166839421 0.01872302033
          0.037174608558 -0.0075552463531 -0.039121411741 -0.023706598207 -0.015231457539 -0.0001231803908
          0.01918970421 -0.047289799899 0.014970497228 0.038897249848 0.047044418752 -0.037442743778
          0.014057337306 -0.007551014889 -0.01466838643 0.018727522343 0.037561267614 -0.0077022938058
          -0.039061855525 -0.023989859968 -0.015221172012 -0.000308672752 0.018972285092 -0.047670930624
          0.014596429653 0.038455687463 0.047054123133 -0.038189567626 0.014082023874 -0.0078112562187
          -0.015081994236 0.018663618714 0.037763837725 -0.0078625530005 -0.039056912065 -0.024240706116
          -0.015264010988 -0.00050085055409 0.018746597692 -0.047980528325 0.014260177501 0.038058321923
          0.046978972852 -0.038768611848 0.013966083527 -0.0080293146893 -0.01535587199 0.018514001742
          0.037710662931 -0.0080450326204 -0.039175868034 -0.02445454523 -0.015402685851 -0.00069509109017
          0.018539471552 -0.048213992268 0.014012034982 0.037786453962 0.046823874116 -0.039101533592
          0.0070133223198 -0.0036099392455 -0.0071915015578 0.0089963078499 0.018684618175 -0.0033924269956
          -0.017056506127 -0.011151427403 -0.0063100736588 -0.00010889539408 0.0085791479796 -0.022344950587
          0.0060439365916 0.016763936728 0.021985443309 -0.018884496763 -0.00064530753298 -0.0032173530199
          -0.0014514807845 -0.0001019773772 0.0013484805822 0.0011895989301 0.0031097081956 0.0017209561775
          -4.1063740355e-05 -0.0018052364467 -0.0010268586921 -4.3715113861e-05 0.00094067293685 -4.4423406507e-05
          0.00096825737273 -4.5631488319e-05 0.0016753758537 -0.0017710070824 -4.8756635806e-05 -0.0010609835153
          4.9278234656e-05 -3.0105815313e-05 -0.0001102781971 -7.7455799328e-05 -3.1681145629e-05 1.32782734e-05
          -3.2926614949e-05 -1.146287218e-06 -3.4043139749e-05 4.7741472372e-05 -0.00011787565745 -3.5541932448e-05
          -6.5915359301e-05 -0.00099045981187 -1.7811969883e-05 0.00095380865969 0.00050258962438 -1.9333127057e-05
          -0.000541658781 -2.0207171474e-05 -0.00054119707784 -2.107565706e-05 -0.00099447811954 0.00095034932019
          -2.2488024115e-05 0.00049908540677 -0.001923223841 -7.7682843767e-06 0.0019069960108 0.0010339143919
          -8.8196602519e-06 -0.0010521567892 -9.4844344858e-06 -0.0010550635634 -1.0101539374e-05 -0.0019269998884
          0.0019054787699 -1.1025090316e-05 0.0010348412907 -0.0036724060774 -1.50763276e-06 0.0036689429544
          0.0019835704006 -2.0844217943e-06 -0.0019884675276 -2.4504545308e-06 -0.0019903108478 -2.7768471682e-06
          -0.0036745464895 0.0036682724021 -3.2137654671e-06 0.0019842858892 0 0
          0 0 0 0 0 0
          0 0 0 0 0
        </DataArray>
        <DataArray type="Float32" Name="uy" format="ascii" RangeMin="-1.1283819675" RangeMax="0.75496536493">
          -0.86001318693 -0.87925428152 -0.88508605957 -0.85230624676 -0.86001569033 -0.88506126404
          -0.87928426266 -0.85968023539 -0.87438064814 -0.86136287451 -0.85195422173 -0.87440878153
          -0.85969674587 -0.86136716604 -0.87392759323 -0.86128431559 -0.8739079237 -0.86127465963
          -0.89257144928 -0.87478655577 -0.89258939028 -0.89148563147 -0.89154213667 -0.89167404175
          -0.87441343069 -0.89175504446 -0.84880310297 -0.80856579542 -0.79104757309 -0.80860537291
          -0.91698753834 -0.89924907684 -0.91708618402 -0.78410333395 -0.89239317179 -0.79379594326
          -0.902305305 -0.75749403238 -0.75241345167 -0.77341288328 -0.86670857668 -0.86137682199
          -0.88187289238 -0.74158984423 -0.85148310661 -0.77394104004 -0.88244116306 -0.76337397099
          -0.87221050262 -0.77188193798 -0.88030040264 -0.74153763056 -0.85143500566 -0.75242501497
          -0.86132413149 -0.77191871405 -0.88034248352 -0.7938041687 -0.90227347612 -0.65775239468
          -0.63960754871 -0.65779876709 -0.63249760866 -0.64280581474 -0.60473382473 -0.59968358278
          -0.62144362926 -0.58801794052 -0.62188220024 -0.61094647646 -0.6202133894 -0.58798003197
          -0.59968131781 -0.62024205923 -0.64280992746 -0.47142839432 -0.45298430324 -0.47145590186
          -0.44581398368 -0.45660755038 -0.41699030995 -0.4121247828 -0.43450817466 -0.39947995543
          -0.43479669094 -0.42356857657 -0.43368673325 -0.399453789 -0.41212713718 -0.4337067008
          -0.45661094785 -0.26164802909 -0.24293413758 -0.26165956259 -0.23573882878 -0.24706968665
          -0.20586374402 -0.20124606788 -0.22421222925 -0.18751434982 -0.22432507575 -0.21282877028
          -0.22389252484 -0.18750458956 -0.20124687254 -0.22390052676 -0.24707086384 -0.042615935206
          -0.02369861491 -0.042608469725 -0.016507141292 -0.02836628817 0.014391596429 0.018715919927
          -0.0047876546159 0.03357097134 -0.0047067054547 0.0070338672958 -0.0050149285235 0.033563155681
          0.018714636564 -0.0050102239475 -0.028365762904 0.17009697855 0.18918767571 0.17012311518
          0.19636267424 0.18399211764 0.22823230922 0.23225603998 0.20825439692 0.24821248651
          0.20852915943 0.22049374878 0.20747865736 0.24818699062 0.23225475848 0.20749624074
          0.18399445713 0.36089813709 0.38015291095 0.36094152927 0.38731449842 0.37446963787
          0.42008829117 0.42383536696 0.39936825633 0.44081181288 0.39982205629 0.4119963944
          0.39808639884 0.44077000022 0.42383399606 0.39811584353 0.37447360158 0.51540076733
          0.53483206034 0.51545864344 0.54199713469 0.52873015404 0.57559239864 0.57911646366
          0.55421078205 0.596978724 0.55481481552 0.56718915701 0.55250406265 0.59692323208
          0.57911503315 0.55254352093 0.52873545885 0.6215352416 0.64117223024 0.62160372734
          0.64836889505 0.63474494219 0.68269056082 0.68606883287 0.66074693203 0.70463973284
          0.66146141291 0.67402952909 0.65872830153 0.70457422733 0.68606734276 0.65877503157
          0.63475120068 0.67044639587 0.6903295517 0.67052090168 0.69759351015 0.68368673325
          0.73253744841 0.73586332798 0.71014487743 0.75493597984 0.71092218161 0.72368043661
          0.70794892311 0.75486475229 0.73586183786 0.70799988508 0.68369352818 0.65711116791
          0.67728602886 0.6571867466 0.68465638161 0.67054522038 0.7201141119 0.72348845005
          0.69739204645 0.74284213781 0.69818103313 0.71112668514 0.69516336918 0.74276995659
          0.72348695993 0.69521510601 0.67055213451 0.58062469959 0.60113495588 0.58069658279
          0.60864979029 0.59441173077 0.64451295137 0.648034513 0.62157970667 0.66745173931
          0.62233024836 0.6354598403 0.61946034431 0.66738313437 0.64803308249 0.61950951815
          0.59441840649 0.44412690401 0.46500688791 0.44419068098 0.47269827127 0.45840528607
          0.50886321068 0.51261878014 0.48582848907 0.53190267086 0.48649606109 0.49980387092
          0.48394480348 0.53184175491 0.51261752844 0.48398852348 0.45841115713 0.25436210632
          0.27563026547 0.254414469 0.2835200429 0.26923328638 0.31989258528 0.32394787669
          0.29685026407 0.34293854237 0.29739999771 0.31087636948 0.29530078173 0.34288853407
          0.32394680381 0.29533672333 0.26923814416 0.020890800282 0.042543657124 0.020929651335
          0.05063937977 0.036404941231 0.087138921022 0.091530300677 0.06416027993 0.11011976004
          0.064571298659 0.078201308846 0.063004769385 0.11008262634 0.091529421508 0.063031546772
          0.036408592016 -0.24500823021 -0.22300101817 -0.24498324096 -0.2147090435 -0.22886353731
          -0.1781463474 -0.17341835797 -0.20101748407 -0.15527412295 -0.20074959099 -0.18698698282
          -0.20176692307 -0.15529797971 -0.17341896892 -0.20174962282 -0.22886107862 -0.53168922663
          -0.5093883276 -0.53167682886 -0.5009303689 -0.51499909163 -0.46434789896 -0.45932495594
          -0.48710086942 -0.4415961504 -0.48695978522 -0.47309365869 -0.48748707771 -0.44160795212
          -0.45932546258 -0.48747822642 -0.5149975419 -0.82867646217 -0.80617535114 -0.8286729455
          -0.79760086536 -0.81159961224 -0.761023283 -0.75578826666 -0.78367823362 -0.73836880922
          -0.78363072872 -0.76969528198 -0.78380095959 -0.73837214708 -0.75578838587 -0.7837985158
          -0.811599195 -1.1283386946 -1.1057657003 -1.1283388138 -1.0971503258 -1.1111226082
          -1.0605764389 -1.0552645922 -1.0831953287 -1.0379601717 -1.0831803083 -1.0692218542
          -1.0832215548 -1.0379600525 -1.0552654266 -1.0832201242 -1.1111216545 -0.95537596941
          -0.93840748072 -0.95554405451 -0.93219590187 -0.94178545475 -0.91043168306 -0.90589278936
          -0.92316603661 -0.89753890038 -0.923635602 -0.91504359245 -0.92216545343 -0.89755737782
          -0.90582698584 -0.9221265316 -0.94157987833 -0.90279275179 -0.90532195568 -0.91200906038
          -0.89272034168 -0.8990700841 -0.91208732128 -0.9054325819 -0.91699743271 -0.89925634861
          -0.91709542274 -0.80857616663 -0.79105824232 -0.80861616135 -0.89240342379 -0.78411310911
          -0.90231496096 -0.79380607605 -0.86671674252 -0.86138492823 -0.88188052177 -0.75750344992
          -0.75242251158 -0.77342277765 -0.85149079561 -0.74159884453 -0.88244944811 -0.77395093441
          -0.87221902609 -0.76338356733 -0.88030606508 -0.77189218998 -0.85144251585 -0.74154692888
          -0.86133146286 -0.75243467093 -0.88035488129 -0.77192765474 -0.90228128433 -0.79381477833
          -0.65776270628 -0.63961738348 -0.65780925751 -0.63250738382 -0.64281564951 -0.60474294424
          -0.59969252348 -0.62145316601 -0.58802658319 -0.62189167738 -0.61095571518 -0.62022274733
          -0.58798873425 -0.59969031811 -0.62025165558 -0.64281994104 -0.47143664956 -0.45299211144
          -0.47146424651 -0.44582152367 -0.45661532879 -0.41699716449 -0.41213142872 -0.43451541662
          -0.39948636293 -0.43480396271 -0.42357560992 -0.43369397521 -0.3994602561 -0.41213387251
          -0.43371385336 -0.45661881566 -0.2616520524 -0.24293756485 -0.2616636157 -0.23574197292
          -0.24707314372 -0.2058659941 -0.20124816895 -0.22421506047 -0.18751603365 -0.22432789207
          -0.21283119917 -0.22389534116 -0.18750627339 -0.201248914 -0.22390322387 -0.24707444012
          -0.042614337057 -0.023696335033 -0.042606845498 -0.016504570842 -0.02836413309 0.014395168051
          0.018719589338 -0.0047847540118 0.033575184643 -0.0047037624754 0.0070372633636 -0.005012051668
          0.033567432314 0.018718473613 -0.0050071892329 -0.028363652527 0.17010454834 0.18919605017
          0.17013074458 0.19637133181 0.18400026858 0.22824217379 0.23226599395 0.20826350152
          0.24822308123 0.20853829384 0.22050340474 0.20748774707 0.24819771945 0.23226495087
          0.20750541985 0.18400268257 0.36091089249 0.38016679883 0.36095443368 0.38732871413
          0.37448310852 0.42010420561 0.42385140061 0.39938312769 0.4408287406 0.39983692765
          0.41201198101 0.39810121059 0.44078713655 0.42385035753 0.3981307447 0.37448728085
          0.51541829109 0.53485095501 0.51547634602 0.54201638699 0.52874851227 0.57561373711
          0.57913792133 0.55423080921 0.59700125456 0.55483490229 0.56721001863 0.55252408981
          0.59694600105 0.57913684845 0.55256354809 0.5287541151 0.62155675888 0.64119517803
          0.62162548304 0.64839220047 0.63476729393 0.68271607161 0.68609446287 0.66077107191
          0.70466649532 0.66148561239 0.67405462265 0.6587523818 0.70460122824 0.68609333038
          0.65879917145 0.63477391005 0.67046993971 0.69035458565 0.67054462433 0.69761902094
          0.68371117115 0.73256540298 0.73589140177 0.7101713419 0.75496536493 0.71094864607
          0.72370785475 0.70797526836 0.7548943758 0.73589026928 0.70802623034 0.68371832371
          0.65713399649 0.67731058598 0.65720981359 0.68468153477 0.67056912184 0.72014194727
          0.72351646423 0.69741821289 0.74287158251 0.69820725918 0.71115392447 0.69518947601
          0.7427996397 0.72351539135 0.69524121284 0.67057645321 0.58064490557 0.60115689039
          0.58071702719 0.60867226124 0.59443300962 0.64453798532 0.64805966616 0.62160313129
          0.66747838259 0.62235373259 0.63548439741 0.61948370934 0.66741001606 0.64805877209
          0.61953288317 0.59444004297 0.44414293766 0.46502444148 0.44420692325 0.47271627188
          0.4584222436 0.50888353586 0.51263922453 0.48584738374 0.53192436695 0.48651498556
          0.49982371926 0.48396363854 0.53186374903 0.51263839006 0.48400738835 0.45842847228
          0.25437164307 0.27564129233 0.25442415476 0.2835315764 0.2692437768 0.31990647316
          0.32396194339 0.29686266184 0.34295386076 0.29741245508 0.31088981032 0.29531311989
          0.34290406108 0.32396122813 0.29534912109 0.269248873 0.020891401917 0.042545937002
          0.020930390805 0.050642222166 0.036406680942 0.087144441903 0.091536059976 0.06416413933
          0.11012691259 0.064575187862 0.078206256032 0.06300856173 0.11008995026 0.091535463929
          0.063035391271 0.036410529166 -0.2450183481 -0.22300922871 -0.24499329925 -0.21471655369
          -0.22887226939 -0.17815083265 -0.17342253029 -0.20102386177 -0.15527682006 -0.20075595379
          -0.18699215353 -0.20177331567 -0.15530055761 -0.17342294753 -0.20175598562 -0.22886972129
          -0.53171050549 -0.5094075799 -0.53169804811 -0.50094884634 -0.51501882076 -0.46436321735
          -0.4593398869 -0.48711818457 -0.44160956144 -0.48697704077 -0.47310969234 -0.48750442266
          -0.44162127376 -0.45934027433 -0.48749545217 -0.51501727104 -0.82870852947 -0.80620545149
          -0.82870495319 -0.79763025045 -0.81163018942 -0.76104950905 -0.75581413507 -0.78370642662
          -0.73839318752 -0.78365892172 -0.76972228289 -0.78382915258 -0.73839646578 -0.75581419468
          -0.78382664919 -0.81162977219 -1.1283819675 -1.1058069468 -1.1283819675 -1.0971908569
          -1.1111643314 -1.0606138706 -1.0553015471 -1.0832346678 -1.0379955769 -1.0832196474
          -1.069259882 -1.0832608938 -1.0379955769 -1.0553023815 -1.0832594633 -1.1111633778
          -0.9553757906 -0.93841576576 -0.95554673672 -0.93219196796 -0.94178241491 -0.91043543816
          -0.90589755774 -0.92317295074 -0.89754462242 -0.92363959551 -0.91504538059 -0.92218095064
          -0.89756417274 -0.90583324432 -0.92211169004 -0.94158685207 -0.90280002356 -0.90531998873
          -0.91201668978 -0.89271634817 -0.89908349514 -0.91208982468 -0.90543484688 -0.71244895458
          -0.7124003768 -0.71244484186 -0.71354007721 -0.71282148361 -0.71354389191 -0.71293622255
          -0.71347677708 -0.7127636075 -0.71252220869 -0.71252977848 -0.71255636215 -0.71348404884
          -0.52272719145 -0.52245891094 -0.52272415161 -0.52300429344 -0.52294296026 -0.5230101347
          -0.52301263809 -0.52301460505 -0.52295321226 -0.5227022171 -0.52270466089 -0.52241897583
          -0.52301979065 -0.32669958472 -0.32724705338 -0.32669660449 -0.32558766007 -0.32615762949
          -0.32559207082 -0.32597830892 -0.32558754086 -0.32615718246 -0.3267043829 -0.32670715451
          -0.32725897431 -0.3255918622 -0.15868893266 -0.1595826894 -0.15868684649 -0.15651473403
          -0.15769228339 -0.15651793778 -0.15730348229 -0.15651507676 -0.15769279003 -0.15868657827
          -0.1586881578 -0.15958154202 -0.15651795268 -0.045953799039 -0.047877352685 -0.045952405781
          -0.041807759553 -0.043819043785 -0.041809558868 -0.043076787144 -0.041808549315 -0.043819565326
          -0.045954242349 -0.045954734087 -0.047879185528 -0.041809815913 0 0
          0 0 0 0 0 0
          0 0 0 0 0
        </DataArray>
        <DataArray type="Float32" Name="uz" format="ascii" RangeMin="-0.16865330935" RangeMax="0.16833159328">
          -0.011905332096 0.005772835575 -0.013880322687 -0.015589154325 -0.011907266453 -0.013891015202
          0.005802671425 0.011878437363 0.02940777503 0.031094549224 0.015769414604 0.02937596105
          0.01189513132 0.031084833667 -0.029644453898 -0.03104891628 -0.029663175344 -0.031043624505
          0.015211652033 0.035836353898 0.015182355419 0.030296010897 0.030252978206 -0.030011560768
          -0.035681411624 -0.02996923402 -0.00017029300216 0.022462442517 -0.011430476792 -0.022812191397
          0.014962567948 -0.0077793668024 -0.01529632695 0.029339021072 0.019674153998 0.059117183089
          0.039154414088 -0.011457235552 -0.059475492686 -0.036641225219 -0.0074179940857 -0.038071528077
          -0.024420984089 -0.022873140872 -0.014287144877 -0.00016143720131 -0.0001560341625 0.029393026605
          0.019134534523 -0.073413841426 -0.048215702176 0.02253633365 0.014058111235 0.059201724827
          0.037754219025 0.073047943413 0.047963578254 -0.059393312782 -0.039621978998 0.029246468097
          -0.014809160493 -0.029548786581 0.038214389235 0.07684699446 -0.014827504754 -0.077163562179
          -0.047594550997 -0.029603213072 -0.00016189838061 0.038204215467 -0.095372222364 0.029226416722
          0.076861381531 0.094991758466 -0.077107220888 0.03433848545 -0.017317796126 -0.034620013088
          0.044802650809 0.090154215693 -0.017352951691 -0.090406924486 -0.055731963366 -0.034683093429
          -0.00016396131832 0.044781129807 -0.11176561564 0.034261588007 0.090096227825 0.1113620773
          -0.090375706553 0.03715718165 -0.018712159246 -0.037422060966 0.048464171588 0.09752355516
          -0.018757497892 -0.097786791623 -0.060257006437 -0.037515994161 -0.00016544837854 0.048435017467
          -0.12088221312 0.037065602839 0.097469136119 0.12046469748 -0.097727701068 0.037396583706
          -0.018825478852 -0.037655971944 0.048764035106 0.098146669567 -0.018876843154 -0.098407506943
          -0.060630071908 -0.037758775055 -0.00016710434284 0.04873290658 -0.12165018916 0.037293892354
          0.098082840443 0.12122551352 -0.098343975842 0.034936659038 -0.017601300031 -0.035199284554
          0.04555227235 0.091707073152 -0.017651669681 -0.091973848641 -0.056663408875 -0.035300854594
          -0.00016862126358 0.045520950109 -0.1136944294 0.0348351188 0.09164429456 0.11327010393
          -0.091911166906 0.02987909317 -0.015088944696 -0.030153730884 0.038959763944 0.078472651541
          -0.015133365989 -0.078750737011 -0.048520363867 -0.030243117362 -0.00017010146985 0.038932390511
          -0.097343802452 0.02978987433 0.078417479992 0.096926771104 -0.078695490956 0.022529238835
          -0.011439669877 -0.02282327041 0.02938343212 0.059241261333 -0.011473285966 -0.059535052627
          -0.036690521985 -0.022890979424 -0.00017148342158 0.029362661764 -0.073583818972 0.022461624816
          0.059199456125 0.073180094361 -0.059493228793 0.013365845196 -0.0068905670196 -0.013685008511
          0.017446020618 0.035265635699 -0.0069097178057 -0.035578332841 -0.021943245083 -0.013723622076