<VTKFile type="UnstructuredGrid" version="1.0" byte_order="LittleEndian" header_type="UInt64">
  <UnstructuredGrid>
    <Piece NumberOfPoints="791" NumberOfCells="973">
      <PointData>
        <DataArray type="Float32" Name="ux" format="ascii" RangeMin="-0.75123113394" RangeMax="1.0211634489e-11">
          -0.066807284951 -0.072784610093 -0.075126454234 -0.065701380372 -0.066820666194 -0.075053319335
          -0.072844512761 -0.066820718348 -0.071312092245 -0.067862339318 -0.06574485451 -0.07136002928
          -0.066866926849 -0.067919239402 -0.071258701384 -0.067850425839 -0.071271285415 -0.067802868783
          -0.07887532562 -0.070894226432 -0.07896015048 -0.078878909349 -0.078950412571 -0.078783906996
          -0.070798501372 -0.078871577978 -0.065002076328 -0.14660122991 -0.14693553746 -0.14710870385
          -0.11972612888 -0.12009012699 -0.12023568898 -0.1464920789 -0.11965052038 -0.14615900815
          -0.11930137873 -0.14691862464 -0.14733853936 -0.14715461433 -0.12009474635 -0.12050498277
          -0.12031789869 -0.14704477787 -0.12023447454 -0.14680160582 -0.11997009069 -0.1465139091
          -0.1196968928 -0.14748869836 -0.12064023316 -0.14664746821 -0.11986047029 -0.14624245465
          -0.11945486814 -0.14602701366 -0.11920445412 -0.14743348956 -0.12056519091 -0.17462162673
          -0.17496241629 -0.17512315512 -0.17452339828 -0.17419144511 -0.17495085299 -0.17537535727
          -0.17518541217 -0.17507825792 -0.1748328954 -0.17454786599 -0.17551992834 -0.17467835546
          -0.17427919805 -0.17406614125 -0.17545163631 -0.2037204206 -0.20405977964 -0.20421585441
          -0.20362450182 -0.20329730213 -0.20404982567 -0.20448094606 -0.20428681374 -0.20417529345
          -0.20393230021 -0.20364560187 -0.20462594926 -0.20376865566 -0.20337256789 -0.20316897333
          -0.20454965532 -0.23376476765 -0.23410436511 -0.23425506055 -0.23367203772 -0.23334859312
          -0.23409578204 -0.23453265429 -0.23433446884 -0.2342197597 -0.23397865891 -0.23369075358
          -0.2346766293 -0.23380738497 -0.23341505229 -0.23321896791 -0.23459263146 -0.26464122534
          -0.26498100162 -0.26512691379 -0.26455184817 -0.26423162222 -0.26497361064 -0.26541635394
          -0.26521423459 -0.26509648561 -0.26485687494 -0.26456782222 -0.2655595541 -0.26467868686
          -0.26428955793 -0.26410058141 -0.26546806097 -0.29624372721 -0.29658350348 -0.29672476649
          -0.29615673423 -0.29583990574 -0.29657718539 -0.29702478647 -0.29681944847 -0.29669883847
          -0.29646086693 -0.29617092013 -0.297167629 -0.29627594352 -0.29589012265 -0.29570758343
          -0.29706928134 -0.32847291231 -0.32881239057 -0.32894960046 -0.32838827372 -0.32807439566
          -0.32880735397 -0.32925966382 -0.32905098796 -0.32892757654 -0.32869136333 -0.32840058208
          -0.32940205932 -0.32850059867 -0.3281172514 -0.32794117928 -0.32929757237 -0.36123681068
          -0.36157649755 -0.36170962453 -0.36115467548 -0.36084359884 -0.36157229543 -0.36202892661
          -0.36181735992 -0.36169147491 -0.36145660281 -0.36116492748 -0.36217036843 -0.36126053333
          -0.36088001728 -0.36070942879 -0.36206033826 -0.39445134997 -0.39479094744 -0.39492082596
          -0.39437171817 -0.39406314492 -0.39478775859 -0.39524787664 -0.39503398538 -0.39490583539
          -0.394672364 -0.39438021183 -0.39538910985 -0.39447125793 -0.39409327507 -0.39392802119
          -0.39527419209 -0.42803966999 -0.42837935686 -0.42850592732 -0.42796182632 -0.42765557766
          -0.42837664485 -0.42884042859 -0.42862418294 -0.42849397659 -0.42826196551 -0.42796885967
          -0.42898157239 -0.42805626988 -0.42768022418 -0.42751982808 -0.42886170745 -0.4619320035
          -0.46227148175 -0.46239548922 -0.46185597777 -0.46155166626 -0.4622695744 -0.4627366364
          -0.46251812577 -0.46238613129 -0.46215516329 -0.46186155081 -0.46287727356 -0.46194526553
          -0.4615713954 -0.46141508222 -0.46275305748 -0.496065557 -0.49640518427 -0.49652633071
          -0.49599120021 -0.49568873644 -0.49640381336 -0.49687337875 -0.49665310979 -0.49651944637
          -0.49628946185 -0.49599552155 -0.49701365829 -0.49607610703 -0.49570414424 -0.49555155635
          -0.49688619375 -0.53038448095 -0.53072410822 -0.53084313869 -0.53031134605 -0.53001064062
          -0.53072291613 -0.53119510412 -0.53097313643 -0.5308380723 -0.53060901165 -0.5303144455
          -0.53133517504 -0.53039258718 -0.53002208471 -0.52987265587 -0.53120452166 -0.56483954191
          -0.56517887115 -0.56529611349 -0.56476736069 -0.56446790695 -0.56517827511 -0.56565243006
          -0.56542932987 -0.56529277563 -0.56506460905 -0.56476980448 -0.56579250097 -0.56484520435
          -0.56447607279 -0.56432956457 -0.56565892696 -0.59938931465 -0.5997287035 -0.59984463453
          -0.5993180275 -0.59902012348 -0.59972840548 -0.60020428896 -0.59998011589 -0.59984248877
          -0.59961497784 -0.59931975603 -0.60034388304 -0.59939342737 -0.5990255475 -0.59888124466
          -0.60020828247 -0.63400053978 -0.63433986902 -0.63445436954 -0.63392996788 -0.63363295794
          -0.63433980942 -0.63481670618 -0.63459169865 -0.63445341587 -0.63422638178 -0.63393110037
          -0.63495641947 -0.63400310278 -0.63363623619 -0.63349384069 -0.63481885195 -0.66864639521
          -0.66898548603 -0.66909915209 -0.66857647896 -0.66827994585 -0.66898554564 -0.66946339607
          -0.66923779249 -0.66909879446 -0.66887235641 -0.66857683659 -0.66960281134 -0.66864782572
          -0.66828155518 -0.66814059019 -0.66946434975 -0.70330768824 -0.70364665985 -0.70375955105
          -0.70323777199 -0.70294195414 -0.70364677906 -0.70412498713 -0.70389890671 -0.70375978947
          -0.70353370905 -0.7032378912 -0.7042645216 -0.70330810547 -0.70294243097 -0.70280259848
          -0.70412504673 -0.73797249794 -0.73831135035 -0.73842436075 -0.73790276051 -0.73760724068
          -0.73831158876 -0.73878991604 -0.73856401443 -0.73842453957 -0.73819845915 -0.73790276051
          -0.7389293313 -0.73797291517 -0.73760712147 -0.73746758699 -0.73878973722 -0.084687277675
          -0.089109703898 -0.084993489087 -0.090418942273 -0.087613388896 -0.097410269082 -0.09867683053
          -0.093423351645 -0.10165898502 -0.093189060688 -0.095561169088 -0.093644782901 -0.10139944404
          -0.097964465618 -0.092681713402 -0.088452085853 -0.085108235478 -0.086570322514 -0.091282948852
          -0.07891472429 -0.082682169974 -0.091238126159 -0.086440488696 -0.12085571885 -0.12047576159
          -0.12035945058 -0.14822871983 -0.14782349765 -0.14773510396 -0.12087664008 -0.14822094142
          -0.12116955221 -0.14854133129 -0.12051513046 -0.12010141462 -0.12023169547 -0.14783217013
          -0.14738675952 -0.14755883813 -0.12049741298 -0.14777626097 -0.12059050798 -0.14792378247
          -0.1208576262 -0.14818952978 -0.11985220015 -0.14717423916 -0.12084088475 -0.14815126359
          -0.12109011412 -0.14842890203 -0.12123189867 -0.14858433604 -0.1199465692 -0.1473044157
          -0.17676201463 -0.176370278 -0.1762739867 -0.17676769197 -0.17707769573 -0.17638352513
          -0.17594265938 -0.17611181736 -0.17632761598 -0.17647378147 -0.17674168944 -0.17573221028
          -0.17670471966 -0.17698594928 -0.17713458836 -0.17585510015 -0.20639185607 -0.20600584149
          -0.20590910316 -0.20640358329 -0.2067130357 -0.20601737499 -0.20557162166 -0.20574830472
          -0.20595397055 -0.20611020923 -0.20638073981 -0.205370754 -0.20633903146 -0.20662988722
          -0.20677834749 -0.20549665391 -0.23698623478 -0.2366065681 -0.23650799692 -0.23700448871
          -0.23731134832 -0.23661646247 -0.23616820574 -0.23635029793 -0.2365475297 -0.23671153188
          -0.23698398471 -0.23597487807 -0.23693943024 -0.23723803461 -0.23738509417 -0.23610192537
          -0.26843097806 -0.26805752516 -0.26795750856 -0.26845568419 -0.26876020432 -0.26806610823
          -0.2676153779 -0.26780223846 -0.26799181104 -0.26816308498 -0.26843780279 -0.267429322
          -0.26838985085 -0.2686958611 -0.26884186268 -0.26755771041 -0.30061903596 -0.3002512157
          -0.300149858 -0.30064928532 -0.3009519875 -0.30025815964 -0.29980540276 -0.29999697208
          -0.30017912388 -0.30035731196 -0.30063378811 -0.29962620139 -0.30058303475 -0.30089625716
          -0.30104085803 -0.29975542426 -0.3334492743 -0.33308658004 -0.33298379183 -0.33348485827
          -0.33378580213 -0.3330925405 -0.33263731003 -0.33283311129 -0.33300870657 -0.33319324255
          -0.33347171545 -0.33246427774 -0.33341810107 -0.33373779058 -0.33388164639 -0.33259469271
          -0.36682784557 -0.36646986008 -0.36636605859 -0.36686897278 -0.36716812849 -0.36647492647
          -0.36601749063 -0.36621725559 -0.36638665199 -0.36657708883 -0.36685752869 -0.36584976315
          -0.36680164933 -0.36712753773 -0.36727017164 -0.36598175764 -0.40066859126 -0.40031480789
          -0.40020999312 -0.4007140696 -0.40101200342 -0.40031889081 -0.39985927939 -0.40006309748
          -0.40022680163 -0.40042260289 -0.40070459247 -0.39969691634 -0.40064674616 -0.40097826719
          -0.40112015605 -0.39982974529 -0.43489211798 -0.43454229832 -0.43443608284 -0.43494191766
          -0.43523797393 -0.43454539776 -0.43408378959 -0.43429109454 -0.4344497025 -0.43465054035
          -0.43493393064 -0.43392655253 -0.43487405777 -0.43521055579 -0.43535152078 -0.43406036496
          -0.46942669153 -0.46908059716 -0.46897375584 -0.46948006749 -0.46977490187 -0.46908283234
          -0.46861994267 -0.46883013844 -0.46898409724 -0.46918910742 -0.46947407722 -0.46846708655
          -0.46941223741 -0.46975326538 -0.46989318728 -0.46860146523 -0.50420814753 -0.50386554003
          -0.50375759602 -0.50426506996 -0.50455892086 -0.50386703014 -0.50340270996 -0.50361549854
          -0.50376540422 -0.50397443771 -0.50426030159 -0.50325351954 -0.50419694185 -0.50454199314
          -0.50468122959 -0.50338882208 -0.53917962313 -0.53883975744 -0.53873127699 -0.53923946619
          -0.5395321846 -0.53884065151 -0.53837525845 -0.538590312 -0.53873664141 -0.53894901276
          -0.53923588991 -0.53822940588 -0.53917115927 -0.53951954842 -0.53965842724 -0.53836518526
          -0.57429105043 -0.57395344973 -0.57384455204 -0.57435363531 -0.57464510202 -0.57395410538
          -0.57348757982 -0.57370483875 -0.57384824753 -0.57406324148 -0.57435101271 -0.57334464788
          -0.57428503036 -0.57463651896 -0.57477468252 -0.57348072529 -0.60950094461 -0.60916501284
          -0.6090555191 -0.60956543684 -0.60985666513 -0.60916543007 -0.60869765282 -0.60891652107
          -0.60905754566 -0.60927510262 -0.6095635891 -0.60855680704 -0.60949683189 -0.60985082388
          -0.60998851061 -0.60869336128 -0.64477401972 -0.64443945885 -0.64432913065 -0.64484030008
          -0.64513123035 -0.64443963766 -0.64397078753 -0.64419102669 -0.64433020353 -0.64454984665
          -0.64483916759 -0.64383149147 -0.64477151632 -0.64512777328 -0.64526557922 -0.64396840334
          -0.68008285761 -0.6797490716 -0.67963844538 -0.68015027046 -0.68044102192 -0.67974895239
          -0.6792794466 -0.67950081825 -0.6796387434 -0.67985981703 -0.68014961481 -0.67914140224
          -0.6800814271 -0.68043929338 -0.6805767417 -0.67927855253 -0.7154070735 -0.71507382393
          -0.71496289968 -0.7154750824 -0.71576571465 -0.71507370472 -0.71460396051 -0.71482586861
          -0.7149631381 -0.71518474817 -0.7154750824 -0.71446657181 -0.71540635824 -0.71576499939
          -0.71590250731 -0.7146037221 -0.75073516369 -0.75040227175 -0.75029146671 -0.75080358982
          -0.75109410286 -0.75040227175 -0.74993240833 -0.75015431643 -0.7502912879 -0.7505132556
          -0.75080341101 -0.74979537725 -0.75073492527 -0.75109398365 -0.75123113394 -0.74993228912
          -0.084995143116 -0.089048326015 -0.084710016847 -0.090905450284 -0.088471651077 -0.097492702305
          -0.098237968981 -0.093117170036 -0.10170891136 -0.0933393538 -0.096105106175 -0.092872969806
          -0.10191804171 -0.098857358098 -0.093732856214 -0.087719887495 -0.085122346878 -0.086551703513
          -0.091323338449 -0.078914768994 -0.082734309137 -0.091331720352 -0.08653844893 -0.04370168224
          -0.043447133154 -0.043412905186 -0.043700743467 -0.043603036553 -0.043845109642 -0.043620459735
          -0.043850772083 -0.043583597988 -0.04366505146 -0.043355435133 -0.043393235654 -0.043661873788
          -0.027024440467 -0.026881637052 -0.026773754507 -0.026978995651 -0.026877449825 -0.027108158916
          -0.026877475902 -0.027105133981 -0.026860302314 -0.026997473091 -0.02673268877 -0.026838120073
          -0.026955099776 -0.014697336592 -0.014520252123 -0.014429544099 -0.014659637585 -0.01455752831
          -0.014797000214 -0.014562139288 -0.014799507335 -0.01454571262 -0.014679665677 -0.0143970754
          -0.014489518479 -0.014637961052 -0.006331667304 -0.0061657023616 -0.006074341014 -0.0062965950929
          -0.0061995657161 -0.006428822875 -0.0062076039612 -0.0064341565594 -0.0061920094304 -0.0063229287043
          -0.0060517154634 -0.0061463401653 -0.0062790382653 -0.0016166312853 -0.0014091975754 -0.0012988166418
          -0.0015752660111 -0.001447977731 -0.0017389078857 -0.001455792808 -0.0017493430059 -0.0014443699038
          -0.0016172016039 -0.0012833198998 -0.001400444773 -0.0015593910357 -3.6465643873e-13 -1.5071454501e-11
          1.0211634489e-11 3.737837405e-13 1.1219682952e-12 -1.5818108542e-12 2.0424932362e-13 7.7166980013e-15
          4.9608962127e-15 0 0 0 -3.8172526561e-15
        </DataArray>
        <DataArray type="Float32" Name="uy" format="ascii" RangeMin="-0.7857658267" RangeMax="3.6957385936e-12">
          -0.068128317595 -0.074065007269 -0.076467841864 -0.067066952586 -0.068015687168 -0.076330497861
          -0.074032433331 -0.06808552146 -0.072631120682 -0.069206573069 -0.067074365914 -0.07273118943
          -0.068067453802 -0.069205440581 -0.072822280228 -0.069274030626 -0.072597317398 -0.069174945354
          -0.080251254141 -0.072191372514 -0.080269530416 -0.080311320722 -0.080325834453 -0.080237835646
          -0.072229079902 -0.08038623631 -0.066330946982 -0.15045757592 -0.15086151659 -0.15051668882
          -0.12194073945 -0.12235154212 -0.12198604643 -0.15098708868 -0.12248843908 -0.15075658262
          -0.1222473532 -0.15153451264 -0.15160322189 -0.15122053027 -0.12303155661 -0.12311061472
          -0.12271645665 -0.15183219314 -0.12332804501 -0.15120713413 -0.12270810455 -0.15144014359
          -0.12294654548 -0.15125916898 -0.12276080996 -0.15189668536 -0.12339772284 -0.15170618892
          -0.12322387099 -0.1512644738 -0.1227722913 -0.15085069835 -0.12232645601 -0.18010058999
          -0.18050003052 -0.18015082181 -0.18062777817 -0.18039627373 -0.18117879331 -0.18125133216
          -0.18085983396 -0.18148435652 -0.18084836006 -0.1810798049 -0.1808950305 -0.18153998256
          -0.18134111166 -0.18089820445 -0.18047894537 -0.21075592935 -0.21114917099 -0.21080093086
          -0.21127746999 -0.21104849875 -0.21182948351 -0.21190239489 -0.21150718629 -0.21213933825
          -0.21149684489 -0.21172679961 -0.21153788269 -0.21218904853 -0.21198277175 -0.2115418613
          -0.21112088859 -0.24230259657 -0.24269026518 -0.24234181643 -0.24281921983 -0.24259196222
          -0.24337279797 -0.24344666302 -0.24304713309 -0.24368737638 -0.2430383265 -0.24326631427
          -0.24307405949 -0.24373109639 -0.24351741374 -0.24307760596 -0.24265544116 -0.27463105321
          -0.27501350641 -0.27466526628 -0.27514320612 -0.2749171257 -0.27569791675 -0.27577283978
          -0.27536931634 -0.27601677179 -0.27536156774 -0.27558812499 -0.27539265156 -0.2760553062
          -0.2758346498 -0.27539607882 -0.27497264743 -0.30763873458 -0.30801671743 -0.30766811967
          -0.30814686418 -0.30792242289 -0.30870270729 -0.30877861381 -0.30837121606 -0.30902594328
          -0.30836480856 -0.3085898757 -0.30839148164 -0.30905905366 -0.30883225799 -0.30839446187
          -0.30796980858 -0.34123173356 -0.34160497785 -0.34125676751 -0.34173572063 -0.34151276946
          -0.34229275584 -0.34236943722 -0.34195896983 -0.34261962771 -0.34195324779 -0.34217697382
          -0.34197574854 -0.34264793992 -0.34241557121 -0.34197899699 -0.34155312181 -0.37532281876
          -0.37569218874 -0.3753439784 -0.37582302094 -0.37560153008 -0.37638098001 -0.37645834684
          -0.37604498863 -0.37671104074 -0.37604045868 -0.37626284361 -0.37605902553 -0.3767350316
          -0.37649741769 -0.37606176734 -0.3756352663 -0.40983271599 -0.41019827127 -0.40985032916
          -0.41032972932 -0.41010934114 -0.41088852286 -0.41096636653 -0.41055035591 -0.41122150421
          -0.41054657102 -0.41076779366 -0.41056203842 -0.41124153137 -0.41099908948 -0.41056442261
          -0.41013732553 -0.44468978047 -0.44505217671 -0.44470396638 -0.44518396258 -0.44496440887
          -0.44574311376 -0.44582217932 -0.44540321827 -0.44607895613 -0.44540032744 -0.44562020898
          -0.44541269541 -0.44609540701 -0.44584882259 -0.4454151094 -0.44498673081 -0.47982925177
          -0.48018839955 -0.47984030843 -0.48032048345 -0.48010215163 -0.4808807075 -0.48095986247
          -0.48053896427 -0.48121884465 -0.4805367291 -0.48075562716 -0.48054638505 -0.48123189807
          -0.48098152876 -0.4805482924 -0.48011982441 -0.51519286633 -0.51554936171 -0.51520121098
          -0.51568168402 -0.51546424627 -0.51624238491 -0.51632243395 -0.51589924097 -0.51658290625
          -0.51589751244 -0.51611578465 -0.51590502262 -0.51659280062 -0.51633894444 -0.51590681076
          -0.51547771692 -0.55072933435 -0.55108374357 -0.55073553324 -0.5512162447 -0.55099922419
          -0.55177736282 -0.55185770988 -0.55143302679 -0.5521197319 -0.55143165588 -0.55164915323
          -0.5514370203 -0.55212730169 -0.55187010765 -0.55143868923 -0.55100911856 -0.58639419079
          -0.58674627542 -0.58639836311 -0.58687913418 -0.58666294813 -0.58744078875 -0.58752167225
          -0.58709543943 -0.58778476715 -0.58709460497 -0.58731120825 -0.58709812164 -0.58779019117
          -0.58753049374 -0.58709943295 -0.58666944504 -0.622148633 -0.62249934673 -0.62215155363
          -0.62263226509 -0.62241643667 -0.62319427729 -0.62327545881 -0.62284779549 -0.62353938818
          -0.62284743786 -0.6230635047 -0.62284964323 -0.62354314327 -0.62328130007 -0.62285089493
          -0.622420609 -0.65796101093 -0.65831065178 -0.65796244144 -0.65844327211 -0.65822786093
          -0.65900552273 -0.65908688307 -0.65865856409 -0.65935176611 -0.65865832567 -0.65887391567
          -0.65865963697 -0.65935397148 -0.65909051895 -0.65866047144 -0.65823024511 -0.6938059926
          -0.69415438175 -0.69380640984 -0.6942871809 -0.69407206774 -0.69484937191 -0.69493126869
          -0.69450223446 -0.69519639015 -0.69450199604 -0.69471722841 -0.69450241327 -0.69519734383
          -0.69493311644 -0.69450312853 -0.6940728426 -0.72966468334 -0.73001253605 -0.72966492176
          -0.73014545441 -0.72993034124 -0.73070764542 -0.73078966141 -0.73036032915 -0.7310551405
          -0.73036003113 -0.73057514429 -0.73036038876 -0.73105531931 -0.73079013824 -0.73036062717
          -0.72993063927 -0.76552653313 -0.76587426662 -0.76552659273 -0.76600706577 -0.76579219103
          -0.76656937599 -0.76665121317 -0.76622164249 -0.76691675186 -0.76622182131 -0.76643675566
          -0.76622188091 -0.76691704988 -0.7666515708 -0.76622182131 -0.76579219103 -0.085303477943
          -0.090029977262 -0.08536208421 -0.091789610684 -0.088888280094 -0.099162615836 -0.10023356229
          -0.094632662833 -0.1036747098 -0.094623811543 -0.097470767796 -0.094665214419 -0.10375183821
          -0.10036535561 -0.094687916338 -0.08898576349 -0.086524099112 -0.088009484112 -0.09282682091
          -0.080216765404 -0.08410512656 -0.092860370874 -0.088031217456 -0.12260010093 -0.12294001132
          -0.1225457415 -0.1515442431 -0.15185801685 -0.15147890151 -0.1231007278 -0.15202458203
          -0.12293709069 -0.15187650919 -0.12362352759 -0.12378983945 -0.12331525981 -0.15253788233
          -0.15268789232 -0.15222252905 -0.12395361811 -0.1528659761 -0.12329476327 -0.15220835805
          -0.12349078804 -0.15240630507 -0.12335847318 -0.15226641297 -0.12388845533 -0.15280686319
          -0.1236865893 -0.15259118378 -0.1233555451 -0.15226922929 -0.12284851074 -0.15177236497
          -0.18169203401 -0.18201322854 -0.18163524568 -0.18217584491 -0.18201817572 -0.18269582093
          -0.18283817172 -0.18237672746 -0.18302597106 -0.18236418068 -0.1825645715 -0.1824144572
          -0.18297508359 -0.18275567889 -0.18241938949 -0.18192607164 -0.21294930577 -0.2132717222
          -0.21289879084 -0.21343053877 -0.21326750517 -0.21395348012 -0.2140891701 -0.2136323899
          -0.21428446472 -0.21362128854 -0.21382246912 -0.21366624534 -0.21423903108 -0.21401506662
          -0.21366985142 -0.21318592131 -0.24518461525 -0.24550913274 -0.24513992667 -0.24566479027
          -0.24549587071 -0.24619080126 -0.24631977081 -0.24586750567 -0.24652285874 -0.2458576113
          -0.24605989456 -0.24589700997 -0.24648290873 -0.24625459313 -0.24590075016 -0.24542371929
          -0.27828395367 -0.2786103189 -0.27824473381 -0.27876287699 -0.27858883142 -0.27929159999
          -0.27941447496 -0.27896633744 -0.27962473035 -0.27895754576 -0.27916115522 -0.27899211645
          -0.27958971262 -0.27935793996 -0.27899551392 -0.27852556109 -0.31213924289 -0.31246730685
          -0.31210511923 -0.3126167655 -0.31243816018 -0.31314849854 -0.31326547265 -0.31282112002
          -0.31348225474 -0.31281378865 -0.31301799417 -0.31284329295 -0.31345233321 -0.31321683526
          -0.31284663081 -0.31238314509 -0.3466489315 -0.34697878361 -0.34661978483 -0.34712541103
          -0.34694218636 -0.34765994549 -0.34777152538 -0.34733048081 -0.34799468517 -0.34732443094
          -0.34752982855 -0.34734967351 -0.34796920419 -0.34773004055 -0.34735271335 -0.34689500928
          -0.38171800971 -0.38204976916 -0.38169360161 -0.38219404221 -0.38200628757 -0.38273108006
          -0.38283762336 -0.38239997625 -0.38306704164 -0.38239473104 -0.38260105252 -0.38241583109
          -0.38304558396 -0.38280296326 -0.38241878152 -0.38196638227 -0.41725856066 -0.41759186983
          -0.41723814607 -0.41773369908 -0.41754209995 -0.41827359796 -0.41837546229 -0.41794022918
          -0.4186103642 -0.41793629527 -0.4181433022 -0.41795361042 -0.41859251261 -0.41834709048
          -0.41795629263 -0.41750890017 -0.45318886638 -0.45352351665 -0.45317214727 -0.45366314054
          -0.45346823335 -0.45420512557 -0.4543029964 -0.4538705945 -0.45454263687 -0.45386707783
          -0.45407488942 -0.45388114452 -0.45452821255 -0.45428007841 -0.4538834095 -0.45344078541
          -0.48943433166 -0.48977026343 -0.48942095041 -0.48990786076 -0.48970964551 -0.49045163393
          -0.49054577947 -0.49011567235 -0.49078980088 -0.49011304975 -0.4903216958 -0.490124017
          -0.49077856541 -0.49052760005 -0.49012610316 -0.48968783021 -0.52592808008 -0.52626508474
          -0.52591788769 -0.52640110254 -0.52619999647 -0.52694630623 -0.5270370841 -0.52660924196
          -0.52728509903 -0.52660745382 -0.52681642771 -0.52661550045 -0.52727651596 -0.52702361345
          -0.52661752701 -0.52618294954 -0.56261128187 -0.56294894218 -0.56260371208 -0.56308370829
          -0.56288003922 -0.56363040209 -0.56371837854 -0.56329214573 -0.56396943331 -0.56329083443
          -0.56350022554 -0.56329679489 -0.56396323442 -0.56370824575 -0.56329846382 -0.56286734343
          -0.59943258762 -0.59977090359 -0.59942698479 -0.59990417957 -0.59969878197 -0.60045236349
          -0.60053777695 -0.60011339188 -0.60079181194 -0.6001124382 -0.60032218695 -0.60011643171
          -0.60078763962 -0.60053116083 -0.60011786222 -0.59968954325 -0.63634878397 -0.63668835163
          -0.6363453269 -0.63682043552 -0.63661307096 -0.63737004995 -0.63745355606 -0.63703030348
          -0.63771003485 -0.63702970743 -0.63723999262 -0.63703209162 -0.63770735264 -0.63744932413
          -0.63703322411 -0.6366071105 -0.67332667112 -0.67366713285 -0.67332458496 -0.6737986207
          -0.67358976603 -0.67434930801 -0.67443162203 -0.67400890589 -0.67469012737 -0.67400860786
          -0.67421919107 -0.67400979996 -0.67468869686 -0.67442935705 -0.67401075363 -0.67358607054
          -0.71033984423 -0.71068060398 -0.71033853292 -0.71081149578 -0.71060150862 -0.71136325598
          -0.71144473553 -0.71102231741 -0.71170455217 -0.7110221386 -0.71123301983 -0.71102279425
          -0.71170383692 -0.71144378185 -0.71102333069 -0.71059983969 -0.7473679781 -0.7477093935
          -0.74736785889 -0.74783992767 -0.74762928486 -0.7483921051 -0.74847298861 -0.74805086851
          -0.7487334013 -0.74805086851 -0.74826180935 -0.7480506897 -0.74873334169 -0.74847263098
          -0.74805122614 -0.74762868881 -0.78440028429 -0.78474152088 -0.78440016508 -0.78487205505
          -0.78466123343 -0.7854244113 -0.78550505638 -0.7850831151 -0.7857658267 -0.78508317471
          -0.78529399633 -0.78508293629 -0.78576564789 -0.78550499678 -0.78508317471 -0.78466105461
          -0.085574969649 -0.090237952769 -0.085493184626 -0.09205211699 -0.08921443671 -0.099455751479
          -0.10064139217 -0.094898238778 -0.10404504091 -0.094874307513 -0.097694054246 -0.094934560359
          -0.10396119952 -0.10050915927 -0.094926081598 -0.089109025896 -0.086584210396 -0.088113114238
          -0.09293743968 -0.080277748406 -0.084186986089 -0.092878699303 -0.088052466512 -0.044624753296
          -0.044520262629 -0.044366411865 -0.044315516949 -0.044457279146 -0.044432923198 -0.044444020838
          -0.044493608177 -0.044464636594 -0.044663257897 -0.044341187924 -0.044524814934 -0.044265631586
          -0.027605144307 -0.027573436499 -0.027390532196 -0.027294682339 -0.027419975027 -0.027399402112
          -0.027393834665 -0.027444122359 -0.027424648404 -0.027642184868 -0.027376407757 -0.027588583529
          -0.027257597074 -0.015045648441 -0.014991854317 -0.014808012173 -0.014713739045 -0.014854175039
          -0.01483873371 -0.01482899487 -0.014871819876 -0.014859037474 -0.015073503368 -0.014799851924
          -0.015003646724 -0.014688260853 -0.0065264576115 -0.0064744655974 -0.0062935100868 -0.0061983675696
          -0.0063402052037 -0.0063281622715 -0.0063154753298 -0.0063505223952 -0.0063450355083 -0.0065477858298
          -0.0062919142656 -0.006486421451 -0.0061836815439 -0.0017746647354 -0.0017084671417 -0.001475836616
          -0.001356328954 -0.0015323181869 -0.0015304068802 -0.0015008931514 -0.0015432427172 -0.0015376541996
          -0.0017910837196 -0.0014816533076 -0.001722255256 -0.001351929619 -3.0081704272e-13 3.6957385936e-12
          -1.5460792369e-12 -1.6172543719e-13 -1.7000599062e-13 7.6043907499e-13 -3.7205989971e-14 -1.7178478692e-14
          -1.6604476651e-14 0 0 0 4.297896674e-14
        </DataArray>
        <DataArray type="Float32" Name="uz" format="ascii" RangeMin="-0.070223167539" RangeMax="0.06816444546">
          -0.014226409607 -0.0080661578104 -0.014919146895 -0.0045272246934 0.0067768315785 0.0038548100274
          0.01159502659 -0.007225420326 0.0012212764705 0.0024632057175 0.004066394642 0.021725548431
          0.013752850704 0.015401202254 -0.022202158347 -0.015864549205 -0.0016760014696 -0.0029146792367
          -0.0021970723756 0.011230965145 0.014982851222 0.0044708680362 0.021640473977 -0.0049142763019
          -0.011706882156 -0.022145451978 -0.00021727468993 0.050138134509 0.050374049693 0.060247324407
          0.049707580358 0.049979455769 0.059397913516 0.038438033313 0.038521613926 0.036358196288
          0.03650841862 0.035711273551 0.044682487845 0.048689901829 0.03596290946 0.04454735294
          0.048383064568 0.030900945887 0.031391605735 0.040517326444 0.040542792529 0.029373807833
          0.02987614274 0.056870393455 0.056213796139 0.020792083815 0.021739304066 0.018220793456
          0.019231887534 0.024169646204 0.024853087962 0.062813363969 0.061898253858 0.050545338541
          0.050763111562 0.061022739857 0.038370106369 0.036233294755 0.035486981273 0.044778473675
          0.048981018364 0.030464883894 0.040505968034 0.028929198161 0.057459939271 0.019987352192
          0.017345786095 0.023552361876 0.063663378358 0.050905421376 0.051100086421 0.061715189368
          0.038305688649 0.036118850112 0.035285811871 0.044863753021 0.049234028906 0.030077338219
          0.040491618216 0.028531813994 0.057980664074 0.019269499928 0.016566446051 0.023003013805
          0.064416147768 0.051222547889 0.051398258656 0.062322869897 0.038249231875 0.036019071937
          0.03510735184 0.044937834144 0.049456521869 0.029733935371 0.040478564799 0.02818078734
          0.05843853578 0.018634764478 0.015877865255 0.022519033402 0.065078184009 0.051499973983
          0.051658067852 0.062854461372 0.038199283183 0.035931684077 0.034950226545 0.04500067234
          0.049650084227 0.029431898147 0.040466029197 0.027873130515 0.058837682009 0.018078407273
          0.015275139362 0.022095419466 0.065656401217 0.051740452647 0.051882725209 0.063314862549
          0.038155321032 0.035855662078 0.034812692553 0.045053351671 0.04981661588 0.029168657959
          0.040454503149 0.027605637908 0.0591821298 0.017595209181 0.014752235264 0.021727951244
          0.06615640223 0.051946315914 0.052074588835 0.063709229231 0.038117419928 0.035790275782
          0.03469369933 0.045097466558 0.049958646297 0.028941456228 0.040443882346 0.027375325561
          0.059476077557 0.017179483548 0.014302643016 0.021412242204 0.066584452987 0.052120324224
          0.052236787975 0.064042858779 0.038084547967 0.035734511912 0.034591916949 0.045133475214
          0.050077982247 0.028747489676 0.040434185416 0.027179589495 0.059724628925 0.016825944185
          0.01392093394 0.021143998951 0.066946700215 0.052265152335 0.05237165466 0.064321033657