<VTKFile type="UnstructuredGrid" version="1.0" byte_order="LittleEndian" header_type="UInt64">
  <UnstructuredGrid>
    <Piece NumberOfPoints="791" NumberOfCells="973">
      <PointData>
        <DataArray type="Float32" Name="ux" format="ascii" RangeMin="0" RangeMax="0.59020417929">
          0.38512954116 0.58328795433 0.5762809515 0.18892408907 0.58065283298 0.43478083611
          0.094279401004 0.50047552586 0.27836310863 0.487501055 0.32986292243 0.31490802765
          0.38028341532 0.37278953195 0.35883763433 0.57720178366 0.50351393223 0.49237963557
          0.22407838702 0.45259469748 0.52887958288 0.27880954742 0.37353906035 0.40804216266
          0.1676671654 0.36353191733 0.34636801481 0.35932502151 0.096024505794 0.34070882201
          0.072135426104 0.14902427793 0.4022127986 0.46184462309 0.27716517448 0.170752123
          0.065777748823 0.32176399231 0.096365980804 0.19462431967 0.56761258841 0.24240198731
          0.18635687232 0.58827656507 0.33570665121 0.53879195452 0.23964497447 0.084162138402
          0.29907312989 0.38482713699 0.34520843625 0.27826720476 0.45201149583 0.49830502272
          0.22819492221 0.35654842854 0.3491845727 0.5524212718 0.23648777604 0.40739449859
          0.11067143083 0.27178823948 0.34121629596 0.25190031528 0.5452772975 0.58324968815
          0.51695340872 0.23435141146 0.12933136523 0.50453352928 0.41114839911 0.47398892045
          0.52700084448 0.10891133547 0.44612342119 0.58765697479 0.53537452221 0.27133762836
          0.26157033443 0.58836317062 0.37526071072 0.21095329523 0.260443151 0.063489936292
          0.39041388035 0.11349448562 0.54179114103 0.12249450386 0.31436410546 0.45424681902
          0.55810219049 0.51456093788 0.16450922191 0.52174198627 0.53651964664 0.14931195974
          0.44900810719 0.32679325342 0.27940306067 0.071920804679 0.43042564392 0.49640026689
          0.39751058817 0.36793738604 0.077111706138 0.35111576319 0.13540433347 0.14392417669
          0.57508116961 0.51162678003 0.55852562189 0.34240275621 0.078902043402 0.24549114704
          0.06698076427 0.36831569672 0.51548618078 0.4969342947 0.13570454717 0.54164946079
          0.077693089843 0.31342801452 0.45611667633 0.32175529003 0.12915822864 0.21747803688
          0.16371953487 0.42749941349 0.21631768346 0.098382286727 0.34800881147 0.38944703341
          0.070827804506 0.29084610939 0.086071483791 0.12833920121 0.44555771351 0.51010519266
          0.083671994507 0.34247100353 0.43717771769 0.089777693152 0.39819082618 0.4061987102
          0.49222713709 0.52898263931 0.43686771393 0.14140200615 0.30702733994 0.18525820971
          0.37092170119 0.45207664371 0.49392193556 0.2581576705 0.37394654751 0.47344997525
          0.47815489769 0.18502894044 0.31387418509 0.34806466103 0.3472789824 0.28435245156
          0.14997754991 0.32726371288 0.32459884882 0.14105346799 0.16406366229 0.26138219237
          0.18335178494 0.17170104384 0.10129548609 0.51935005188 0.3392868042 0.25189036131
          0.57528960705 0.5376483202 0.12615047395 0.31316962838 0.53893494606 0.49143400788
          0.31338217854 0.12181992829 0.14086200297 0.51858311892 0.47209641337 0.20554439723
          0.27058294415 0.34944099188 0.34919825196 0.24687644839 0.38085880876 0.45205295086
          0.11456525326 0.36480790377 0.33967041969 0.58284294605 0.18093803525 0.35991930962
          0.15266481042 0.09140342474 0.17952203751 0.21086545289 0.37041175365 0.35718017817
          0.55000001192 0.42437887192 0.58780169487 0.28843253851 0.19481825829 0.38956594467
          0.32235491276 0.31877568364 0.17002902925 0.52733796835 0.12859643996 0.10037735105
          0.24379456043 0.55186879635 0.5735822916 0.32327765226 0.24222952127 0.58863210678
          0.24194945395 0.5265430212 0.31328248978 0.56799042225 0.29750174284 0.42570531368
          0.53436583281 0.49518060684 0.468031317 0.22230441868 0.57273352146 0.28993162513
          0.31543779373 0.45392373204 0.43478181958 0.16774116457 0.41618698835 0.31819432974
          0.58371502161 0.49005749822 0.10961728543 0.085834689438 0.25414171815 0.11996585131
          0.19121794403 0.36683216691 0.56928920746 0.28052276373 0.57418519258 0.39886707067
          0.12430119514 0.30815055966 0.40333163738 0.50787460804 0.26112398505 0.48114061356
          0.40461289883 0.47253066301 0.33457767963 0.13901087642 0.12785769999 0.29249194264
          0.52601057291 0.42228057981 0.065036788583 0.33992028236 0.3990393281 0.1278488338
          0.086102768779 0.42651450634 0.092047505081 0.2102368325 0.12582746148 0.46106997132
          0.18347257376 0.51080346107 0.5877737999 0.50406855345 0.21384327114 0.075149856508
          0.27344593406 0.32883182168 0.27005884051 0.34924909472 0.21305423975 0.17055876553
          0.2115688026 0.56071645021 0.2761233449 0.31804427505 0.20360189676 0.13061873615
          0.41225531697 0.47214269638 0.45096901059 0.5330234766 0.44379788637 0.52287477255
          0.55110180378 0.22768715024 0.25229874253 0.19168773293 0.25981041789 0.54767692089
          0.089438728988 0.13914033771 0.076106540859 0.334269315 0.12969623506 0.43053537607
          0.46905601025 0.28597438335 0.57592117786 0.36757969856 0.32507279515 0.31579196453
          0.39435660839 0.11448279023 0.21638350189 0.064171306789 0.26394578815 0.081790134311
          0.1938816905 0.27237325907 0.44383600354 0.34244459867 0.20445626974 0.12381329387
          0.1307335645 0.22680643201 0.58960652351 0.36360952258 0.16889359057 0.25143548846
          0.1223109439 0.076053284109 0.10288526118 0.38871902227 0.40502336621 0.2765763402
          0.37199860811 0.19121275842 0.55991053581 0.58361667395 0.24835318327 0.32019433379
          0.44986957312 0.39192128181 0.39261046052 0.53094547987 0.26151427627 0.089213907719
          0.15177975595 0.11196986586 0.43199780583 0.4550178349 0.24463370442 0.47821456194
          0.52245330811 0.45217233896 0.20838172734 0.37962052226 0.49073365331 0.47315013409
          0.250220716 0.49253058434 0.10933020711 0.58215481043 0.57981586456 0.35644489527
          0.15864233673 0.1338544637 0.29558670521 0.58531451225 0.50144588947 0.56289029121
          0.28981131315 0.25709438324 0.30744808912 0.56730729342 0.44526568055 0.26775661111
          0.37438738346 0.14857274294 0.37382262945 0.47464364767 0.19780653715 0.069011889398
          0.14372563362 0.14600731432 0.4956408143 0.15721963346 0.40885901451 0.56196594238
          0.33459845185 0.40335524082 0.25483748317 0.5667476058 0.10650898516 0.060701284558
          0.11757845432 0.49456506968 0.55502700806 0.4686024487 0.55309480429 0.46388036013
          0.53113555908 0.38674691319 0.33636674285 0.53214710951 0.097884304821 0.19290187955
          0.07646690309 0.23998357356 0.47408461571 0.45327883959 0.2193287313 0.4614456594
          0.27897357941 0.21408101916 0.57705354691 0.27584040165 0.22759491205 0.52617824078
          0.23793008924 0.3058848083 0.37360957265 0.1737382412 0.25471755862 0.41592204571
          0.24676643312 0.10724925995 0.29905495048 0.5204782486 0.23235936463 0.38829097152
          0.49301114678 0.43444892764 0.14492815733 0.51788246632 0.3419623971 0.12351331115
          0.45218539238 0.56584483385 0.14004571736 0.119087331 0.16148716211 0.32098937035
          0.44092839956 0.56685340405 0.46357354522 0.3434497118 0.17995363474 0.27227368951
          0.21442480385 0.3781747818 0.40061807632 0.45903414488 0.18099710345 0.23868173361
          0.4365054667 0.56417787075 0.19758717716 0.23110421002 0.38072288036 0.078106179833
          0.26414909959 0.34273576736 0.36195787787 0.29810079932 0.079269662499 0.25390225649
          0.49626940489 0.084659725428 0.18112686276 0.53503620625 0.1572727859 0.15596136451
          0.38099718094 0.3461548686 0.38246911764 0.21245183051 0.33681842685 0.23694269359
          0.53687369823 0.079100333154 0.39639696479 0.52797853947 0.33765792847 0.36795607209
          0.086209833622 0.48928272724 0.4078977108 0.24909427762 0.20915390551 0.076035000384
          0.33985292912 0.29341027141 0.3139089942 0.39069268107 0.57570534945 0.44397729635
          0.27691581845 0.19335819781 0.24417817593 0.58810991049 0.55754423141 0.55599349737
          0.097552381456 0.067192032933 0.53899329901 0.47714364529 0.46083113551 0.40574461222
          0.33514693379 0.1971821636 0.36844444275 0.31424215436 0.34994331002 0.42591005564
          0.2885017395 0.37533015013 0.17120707035 0.079095385969 0.30346921086 0.19197021425
          0.51903164387 0.30457821488 0.58612680435 0.17890532315 0.45494908094 0.53052347898
          0.38979101181 0.49082258344 0.41930058599 0.10411255807 0.55122172832 0.26849317551
          0.27028951049 0.21330243349 0.28484675288 0.41978365183 0.46276473999 0.40349367261
          0.56469041109 0.45621484518 0.11320201308 0.30274266005 0.52509194613 0.32202464342
          0.12542146444 0.39396634698 0.58264827728 0.47803854942 0.51196831465 0.47570088506
          0.36667469144 0.13776928186 0.12413495779 0.44686332345 0.40981522202 0.17749524117
          0.12671610713 0.13127744198 0.17013184726 0.25612103939 0.48515573144 0.51204395294
          0.38194611669 0.29623734951 0.32818010449 0.47405490279 0.061778392643 0.1204117015
          0.4915035665 0.43566545844 0.34136092663 0.21391524374 0.5873721838 0.45733094215
          0.53963857889 0.44066867232 0.28890627623 0.44331070781 0.15280686319 0.23380436003
          0.075312450528 0.29715746641 0.19380357862 0.087439276278 0.11129561812 0.17750841379
          0.22484239936 0.20643872023 0.50157415867 0.14797410369 0.18948127329 0.24692989886
          0.13444966078 0.42757984996 0.3045579493 0.37047159672 0.15761399269 0.059535156935
          0.41898277402 0.32003068924 0.50222343206 0.26046618819 0.12068285048 0.087215870619
          0.46391001344 0.50818639994 0.40913158655 0.43953868747 0.29829135537 0.32439306378
          0.12001773715 0.24486368895 0.52540051937 0.19271636009 0.19482135773 0.13956639171
          0.23408712447 0.08144518733 0.066500864923 0.260527879 0.31949463487 0.31067243218
          0.18584774435 0.15653774142 0.54434895515 0.34800752997 0.48315161467 0.23542034626
          0.32575258613 0.35729411244 0.20559930801 0.081178568304 0.33707109094 0.25072708726
          0.30664545298 0.56833648682 0.50068688393 0.27309274673 0.10645548999 0.21364328265
          0.10571149737 0.24774718285 0.42635598779 0.36381739378 0.17173522711 0.38627031446
          0.3202881813 0.57009875774 0.20333987474 0.33677101135 0.331802845 0.25730407238
          0.42238140106 0.59020417929 0.084337316453 0.10000517219 0.16005499661 0.22235508263
          0.40238025784 0.38225668669 0.38228473067 0.1852107197 0.51004874706 0.21164770424
          0.51606309414 0.20947296917 0.22256802022 0.30076953769 0.45002195239 0.20791557431
          0.37844368815 0.11566408724 0.12032295763 0.41149789095 0.42927455902 0.33999997377
          0.57556515932 0.30055272579 0.33424913883 0.22599315643 0.5811188817 0.58562070131
          0.15824703872 0.40720671415 0.58726859093 0.28447586298 0.15912611783 0.27374053001
          0.25217613578 0.5864238143 0.35146814585 0.47276309133 0.11982681602 0.11968575418
          0.20070593059 0.29334717989 0.47482594848 0.34427028894 0.57882750034 0.46177667379
          0.33646050096 0.22960156202 0.12148072571 0.24957449734 0.4569375217 0.17107573152
          0.5523249507 0.40960195661 0.059722594917 0.22146551311 0.28399991989 0.45419055223
          0.45643657446 0.42558199167 0.57383680344 0.43872955441 0.43486788869 0.54041516781
          0.34394598007 0.48461416364 0.42421519756 0.57854777575 0.30364131927 0.53154790401
          0.51000267267 0.31615498662 0.21436271071 0.41923171282 0.30699685216 0.44699639082
          0.38857346773 0.084824927151 0.063718751073 0.32728746533 0.53259891272 0.20831604302
          0.50454759598 0.42960968614 0.060908682644 0.42681720853 0.2635204792 0.56970280409
          0.085930518806 0.48576721549 0.33538389206 0.45283800364 0.16351002455 0.17562834918
          0.33712080121 0.55027288198 0.30603769422 0.41402956843 0.069927535951 0.58677881956
          0.39844366908 0.37323626876 0.13373881578 0.16969521344 0.5854729414 0.13991849124
          0.48919382691 0.066184617579 0.43629851937 0.14435344934 0.22560559213 0.37662649155
          0.36752176285 0.32326769829 0.44615727663 0.29606860876 0 0
          0 0 0 0 0 0
          0 0 0 0 0
        </DataArray>
        <DataArray type="Float32" Name="uy" format="ascii" RangeMin="0" RangeMax="0.59062695503">
          0.50921970606 0.13826274872 0.33750963211 0.19030871987 0.42210236192 0.23744666576
          0.32168731093 0.40169039369 0.29749649763 0.52966791391 0.5648842454 0.39808681607
          0.2047509253 0.55754089355 0.25649562478 0.4807100594 0.52693259716 0.58384031057
          0.3490703702 0.19680978358 0.28089237213 0.24355536699 0.1827916801 0.33414694667
          0.21994170547 0.13612614572 0.38734006882 0.50722116232 0.21942131221 0.41489490867
          0.11967414618 0.083043724298 0.21925336123 0.49448254704 0.42227575183 0.18211846054
          0.3172301054 0.44996765256 0.3604580462 0.42500799894 0.26453390718 0.18081206083
          0.37271770835 0.36710175872 0.36369210482 0.42336982489 0.51146113873 0.54812413454
          0.51808333397 0.49979931116 0.5534928441 0.35050928593 0.59029793739 0.52038311958
          0.27406176925 0.18684624135 0.086481943727 0.48212218285 0.13048958778 0.40335133672
          0.45608690381 0.31725353003 0.10479152203 0.5197173357 0.29957619309 0.17754735053
          0.49667569995 0.42810600996 0.43816035986 0.14001086354 0.46107140183 0.3696218431
          0.16573743522 0.57551276684 0.41073292494 0.55589586496 0.087808102369 0.078759036958
          0.3006439209 0.36407530308 0.38716858625 0.54218649864 0.076306648552 0.090124845505
          0.44760921597 0.52860873938 0.29621711373 0.33694651723 0.27249348164 0.3994230628
          0.40400567651 0.45965829492 0.33355134726 0.36542725563 0.53819668293 0.31550276279
          0.22023817897 0.54946601391 0.35204276443 0.25332328677 0.11205093563 0.45184588432
          0.52533900738 0.31777349114 0.24502463639 0.38169285655 0.19192816317 0.19021704793
          0.51551824808 0.096520058811 0.54587012529 0.49688830972 0.49140611291 0.24422453344
          0.36367532611 0.12427297235 0.51337820292 0.3651150465 0.23661756516 0.52424401045
          0.31178751588 0.34133714437 0.53535717726 0.52422845364 0.32765474916 0.22444327176
          0.40345224738 0.47272831202 0.24832494557 0.53199762106 0.39955052733 0.083484314382
          0.077890790999 0.30332416296 0.073068328202 0.10908090323 0.30392003059 0.32236722112
          0.48490929604 0.57574087381 0.20422549546 0.17036779225 0.43948948383 0.30093485117
          0.52464312315 0.17095452547 0.079395331442 0.37975147367 0.28755751252 0.11719693989
          0.35715061426 0.15707625449 0.094423510134 0.27058562636 0.10582134873 0.54709124565
          0.56515419483 0.097513414919 0.23854649067 0.44086554646 0.060283448547 0.39191299677
          0.24706818163 0.49471569061 0.49784654379 0.37698704004 0.50191408396 0.49219432473
          0.09492123127 0.07976603508 0.32180190086 0.30102074146 0.51139503717 0.36377754807
          0.17040991783 0.098361767828 0.14676295221 0.28488197923 0.5250915885 0.50675302744
          0.12332354486 0.062695145607 0.26960721612 0.291451931 0.12673069537 0.40937665105
          0.57848238945 0.29117205739 0.46149334311 0.060460086912 0.30869412422 0.34103441238
          0.25334453583 0.19323669374 0.45216467977 0.37619391084 0.45666918159 0.52396458387
          0.31648248434 0.58562391996 0.099105216563 0.11223863065 0.51699542999 0.43755590916
          0.50286608934 0.37426254153 0.27682045102 0.31813466549 0.088954083622 0.33263361454
          0.4945371747 0.51314216852 0.52047801018 0.2670942843 0.54867607355 0.40054944158
          0.20388449728 0.13267782331 0.10705307871 0.39823779464 0.16665929556 0.30278709531
          0.55288392305 0.18455705047 0.152655527 0.2248698324 0.1185887605 0.11064500362
          0.29940482974 0.33593854308 0.18624173105 0.3478192389 0.26923191547 0.45437067747
          0.42087867856 0.5123193264 0.088241189718 0.57322204113 0.33338239789 0.10958329588
          0.470135957 0.33683559299 0.30986994505 0.20462097228 0.55914026499 0.28584289551
          0.30661085248 0.37936219573 0.23204162717 0.44069501758 0.081324949861 0.40260013938
          0.31002995372 0.48254787922 0.14122186601 0.37465065718 0.14606073499 0.2349717021
          0.34837961197 0.52879983187 0.18260033429 0.36538985372 0.25932249427 0.30864012241
          0.145588696 0.51276546717 0.51209080219 0.092226028442 0.43963611126 0.54396635294
          0.37141871452 0.2848559618 0.24792324007 0.16547833383 0.096133135259 0.19470767677
          0.5660815835 0.51554679871 0.50098001957 0.38050824404 0.11427000165 0.54369950294
          0.47262048721 0.22749261558 0.10490176827 0.29904821515 0.36305263638 0.2445640564
          0.12781591713 0.37942522764 0.37520813942 0.42741963267 0.36777040362 0.50620985031
          0.10407148302 0.072208695114 0.36115309596 0.17610645294 0.25740745664 0.37240478396
          0.21461188793 0.1160428226 0.49628311396 0.33618718386 0.27330106497 0.48733067513
          0.50615030527 0.51579189301 0.25856798887 0.53472304344 0.41620588303 0.28897798061
          0.47766205668 0.51242828369 0.41535916924 0.34286507964 0.18043652177 0.55617523193
          0.2832300663 0.5666115284 0.3140835762 0.31365644932 0.42875295877 0.2330186516
          0.15601325035 0.33893063664 0.26050305367 0.55621218681 0.18793599308 0.53717154264
          0.33775690198 0.20897866786 0.1287406981 0.42649188638 0.5588799715 0.15946145356
          0.56453609467 0.18182037771 0.36983343959 0.22124306858 0.20632855594 0.50120091438
          0.22922410071 0.50217992067 0.32304650545 0.2113391757 0.19198851287 0.22267925739
          0.53494745493 0.096274584532 0.24974027276 0.37199786305 0.33748424053 0.57486337423
          0.45926335454 0.18420921266 0.23557078838 0.30890190601 0.54168903828 0.57320028543
          0.48632654548 0.31414538622 0.53178054094 0.2250675112 0.093562297523 0.12763141096
          0.45367285609 0.49939882755 0.57195162773 0.39948949218 0.24785023928 0.43265047669
          0.43342080712 0.56166899204 0.26603135467 0.3743929863 0.46338257194 0.51094061136
          0.52764093876 0.48227524757 0.46151125431 0.12897270918 0.53312939405 0.061865434051
          0.064220152795 0.47270637751 0.46636235714 0.43736997247 0.5632802248 0.59018754959
          0.21257203817 0.47744593024 0.063280105591 0.23354324698 0.078593477607 0.38306319714
          0.25073775649 0.22252129018 0.12492740154 0.27542802691 0.4932731092 0.4747248292
          0.50583148003 0.16051000357 0.54465270042 0.49375396967 0.51115775108 0.42626515031
          0.097204193473 0.5357440114 0.47394272685 0.53871834278 0.094936057925 0.2164503634
          0.27372530103 0.47510531545 0.57124745846 0.56532722712 0.11944324523 0.26570233703
          0.43398970366 0.24475716054 0.44041159749 0.52449351549 0.47038182616 0.13477948308
          0.12591174245 0.21084980667 0.56063067913 0.065890200436 0.49727424979 0.1860460341
          0.13450859487 0.4824796319 0.28934517503 0.359662503 0.15089926124 0.21865573525
          0.29963830113 0.36029887199 0.32819318771 0.54632914066 0.3508849442 0.46146810055
          0.079964675009 0.46732464433 0.27573981881 0.2836574614 0.064414553344 0.20348015428
          0.39538311958 0.55837899446 0.51731705666 0.20739008486 0.58483242989 0.47163590789
          0.57629233599 0.2389883846 0.14391718805 0.50786441565 0.4131604135 0.39740329981
          0.15568184853 0.44462755322 0.48325553536 0.24002142251 0.17105469108 0.4433786273
          0.29311841726 0.24827075005 0.34648039937 0.24395337701 0.58308106661 0.31191807985
          0.36946234107 0.56007838249 0.39864853024 0.34263265133 0.085858389735 0.46366298199
          0.24519495666 0.15084815025 0.20251399279 0.37671113014 0.22966070473 0.36941355467
          0.1866799742 0.14003384113 0.39484488964 0.49642109871 0.21015134454 0.082034245133
          0.1522782743 0.090818747878 0.47568705678 0.56660145521 0.57137006521 0.39674833417
          0.57944077253 0.50824207067 0.54635369778 0.46162390709 0.50011318922 0.26311221719
          0.24777051806 0.083681643009 0.51025879383 0.1549628973 0.19478754699 0.27650886774
          0.23300971091 0.1813133359 0.47501122952 0.36158809066 0.46620875597 0.45171770453
          0.57835268974 0.074404522777 0.31881061196 0.17677810788 0.49857378006 0.18872076273
          0.21226240695 0.42991104722 0.35999545455 0.37653407454 0.33413732052 0.08317643404
          0.11856243759 0.17532856762 0.29283410311 0.56397348642 0.50406044722 0.50903749466
          0.20325297117 0.24772290885 0.24489331245 0.18313132226 0.33550009131 0.41658243537
          0.47426274419 0.54844707251 0.44646596909 0.17818959057 0.43363144994 0.46416479349
          0.52673333883 0.19741345942 0.44807037711 0.34266391397 0.11870730668 0.061660636216
          0.24454696476 0.35264611244 0.53365558386 0.088431566954 0.18045866489 0.35064694285
          0.4773901701 0.18426062167 0.36362507939 0.46037498116 0.47222390771 0.38064154983
          0.20977273583 0.31657773256 0.31929299235 0.10933295637 0.4664568007 0.41658484936
          0.26311355829 0.55329245329 0.19401985407 0.52526289225 0.45819213986 0.50874632597
          0.56973850727 0.57769948244 0.13613915443 0.58782678843 0.15238848329 0.42471018434
          0.55945062637 0.47248789668 0.28518822789 0.081879034638 0.31419715285 0.27364325523
          0.20243152976 0.33096644282 0.58971172571 0.40369331837 0.26766958833 0.43786415458
          0.51865679026 0.25540351868 0.08563952148 0.16608448327 0.52600413561 0.21680124104
          0.24384087324 0.38337209821 0.56005311012 0.10251495242 0.079724095762 0.45215782523
          0.15289437771 0.21965871751 0.41970029473 0.44327029586 0.084914438426 0.52834695578
          0.55125182867 0.3120854795 0.44784370065 0.4246634841 0.57865458727 0.49251306057
          0.24144044518 0.22274437547 0.15858206153 0.25113087893 0.38597920537 0.07147128135
          0.36957776546 0.37725436687 0.41429036856 0.36309811473 0.14941167831 0.19444647431
          0.34098267555 0.46100619435 0.12267363816 0.13330212235 0.34295406938 0.20105867088
          0.25529822707 0.30192613602 0.35999748111 0.39037308097 0.21576875448 0.46057271957
          0.25884306431 0.58918267488 0.37151515484 0.34849014878 0.078147038817 0.28226312995
          0.085988454521 0.25603660941 0.089357212186 0.47908821702 0.14140811563 0.51276546717
          0.22417576611 0.42905840278 0.4074177742 0.21219468117 0.51593339443 0.37399947643
          0.30758681893 0.30199745297 0.22141489387 0.59062695503 0.16888928413 0.18570208549
          0.41947728395 0.54952692986 0.36126163602 0.4902484715 0.2338693589 0.2776914835
          0.36023688316 0.4149415195 0.24582162499 0.12796083093 0.23075547814 0.21741296351
          0.49259898067 0.46708646417 0.098746433854 0.44277510047 0.30584383011 0.31469222903
          0.11841291189 0.37876969576 0.16558043659 0.10499763489 0.34471008182 0.18456178904
          0.30883777142 0.14382252097 0.56156200171 0.25962784886 0.24708606303 0.22771906853
          0.23520509899 0.58655709028 0.1792397052 0.21222612262 0.31098034978 0.33881545067
          0.34064537287 0.24085599184 0.48468381166 0.30597296357 0.089099265635 0.42571645975
          0.56629997492 0.21894074976 0.40369698405 0.09072291851 0.43201357126 0.32316896319
          0.53366810083 0.4348501265 0.43177300692 0.33659848571 0.28744950891 0.39346662164
          0.2921051085 0.15431185067 0.35369312763 0.17266377807 0.3350661695 0.1491535157
          0.31129747629 0.44351235032 0.44707876444 0.14731793106 0.44773823023 0.28367275
          0.13441982865 0.30943453312 0.58749222755 0.3393663168 0.44999837875 0.46697643399
          0.33224481344 0.54964613914 0.19924905896 0.53623425961 0.08711861819 0.16997969151
          0.52597463131 0.075035125017 0.3049864471 0.4215516746 0.4912570715 0.20666350424
          0.16630512476 0.32011422515 0.22746661305 0.5204693675 0.4020395577 0.46689128876
          0.39388269186 0.50582534075 0.1456567347 0.25159543753 0.09726267308 0.32425302267
          0.14765128493 0.15851570666 0.1378275007 0.22535948455 0.31496760249 0.2369902581
          0.19241496921 0.47204479575 0.078555986285 0.22219088674 0.38068938255 0.21872085333
          0.23319140077 0.39973387122 0.16554760933 0.113856785 0 0
          0 0 0 0 0 0
          0 0 0 0 0
        </DataArray>
        <DataArray type="Float32" Name="uz" format="ascii" RangeMin="0" RangeMax="0.58931988478">
          0.26876106858 0.18674911559 0.092978551984 0.40249484777 0.20506235957 0.43652376533
          0.10198973119 0.16973587871 0.26981425285 0.18109670281 0.44372087717 0.29298940301
          0.19169805944 0.52292048931 0.36251866817 0.47927814722 0.19890254736 0.54024147987
          0.059942204505 0.14388523996 0.48720562458 0.11632221937 0.39597317576 0.063909262419
          0.45353108644 0.2545863986 0.44818240404 0.10793170333 0.29110249877 0.56925171614
          0.21792751551 0.12649859488 0.060717042536 0.22982959449 0.2816054821 0.52127575874
          0.28447940946 0.39753499627 0.51545989513 0.47503018379 0.3641500771 0.16546666622
          0.43620529771 0.46888199449 0.22245547175 0.059368472546 0.40885421634 0.57201510668
          0.49370715022 0.44606789947 0.16945777833 0.51590365171 0.2733181119 0.49232444167
          0.21467621624 0.38396841288 0.34746977687 0.15043884516 0.5607085824 0.40305277705
          0.57562363148 0.48400050402 0.15839062631 0.46894931793 0.55190235376 0.45502501726
          0.36689451337 0.5013153553 0.45169430971 0.37555146217 0.32091590762 0.44940239191
          0.39451512694 0.47699835896 0.2845685482 0.39678627253 0.11712562293 0.33476370573
          0.15738004446 0.43526345491 0.088617898524 0.27431192994 0.28295990825 0.38585597277
          0.22257979214 0.12409224361 0.12631832063 0.53764265776 0.081790827215 0.33073145151
          0.44523108006 0.23819130659 0.11818149686 0.099405907094 0.20507779717 0.46378815174
          0.43821975589 0.066244184971 0.45054966211 0.20342360437 0.22026760876 0.30681937933
          0.54238581657 0.074260398746 0.56152641773 0.075850591063 0.27935656905 0.10702551156
          0.5526574254 0.41307744384 0.36632037163 0.2999330759 0.27843880653 0.42676573992
          0.37442472577 0.37450844049 0.56967288256 0.42096689343 0.30111050606 0.29174152017
          0.47166678309 0.38871461153 0.45343226194 0.45113822818 0.3205101192 0.16383111477
          0.55720359087 0.075653202832 0.29714640975 0.48635405302 0.29872709513 0.32284301519
          0.18673554063 0.24220316112 0.53278237581 0.29229009151 0.54514503479 0.094950519502
          0.50977194309 0.34019705653 0.29429382086 0.39833086729 0.16092032194 0.25893345475
          0.55915570259 0.33793798089 0.20120257139 0.067071020603 0.58931988478 0.46555483341
          0.37180015445 0.09004213661 0.52740013599 0.25163465738 0.22830566764 0.55193549395
          0.21786528826 0.33829122782 0.280444175 0.18200719357 0.43121761084 0.30221024156
          0.42063733935 0.093253605068 0.43182787299 0.21169212461 0.37635976076 0.18915337324
          0.21377187967 0.12930290401 0.21908561885 0.42169845104 0.10817975551 0.42533046007
          0.33969154954 0.57208031416 0.3078302145 0.3231716156 0.4358483851 0.55299001932
          0.5602709651 0.58291912079 0.42356979847 0.39226979017 0.52192741632 0.44400548935
          0.19587957859 0.24381659925 0.44692981243 0.17714990675 0.4118950665 0.40688771009
          0.5696605444 0.48806673288 0.18133509159 0.13025729358 0.47913226485 0.10068841279
          0.094764269888 0.48777657747 0.080276615918 0.074030615389 0.10964303464 0.16825300455
          0.39635974169 0.37628415227 0.44162020087 0.25153836608 0.37422919273 0.12626181543
          0.13010205328 0.29126214981 0.19400002062 0.18590599298 0.51910930872 0.32063058019
          0.082645393908 0.32425633073 0.42625069618 0.14079764485 0.41296669841 0.41767308116
          0.44560998678 0.20279791951 0.06690299511 0.32441759109 0.24331849813 0.34365668893
          0.3617258966 0.58464741707 0.39402809739 0.30631780624 0.13227139413 0.37465772033
          0.50655907393 0.55264222622 0.39536508918 0.24785381556 0.43365567923 0.22238658369
          0.47036981583 0.30444872379 0.19477246702 0.49263864756 0.11769644171 0.2732680738
          0.28809782863 0.17565059662 0.19846650958 0.27046355605 0.27486974001 0.44447803497
          0.18157187104 0.21923659742 0.37703746557 0.095046296716 0.39289340377 0.49991476536
          0.41229251027 0.16360607743 0.48426699638 0.4352875948 0.43886891007 0.20705790818
          0.53136688471 0.1000598371 0.26856946945 0.22258658707 0.45887944102 0.1475020647
          0.082227453589 0.40367257595 0.12553746998 0.3785598278 0.51753050089 0.39947485924
          0.49167919159 0.23577225208 0.47815105319 0.56315612793 0.46503788233 0.17348794639
          0.11617138982 0.45895460248 0.069839693606 0.37453314662 0.28617230058 0.29931786656
          0.47566521168 0.079480402172 0.35903540254 0.54813581705 0.53537631035 0.36139991879
          0.44938397408 0.15856319666 0.23280219734 0.13386674225 0.13859248161 0.068349704146
          0.48898056149 0.54400962591 0.37203493714 0.070381633937 0.53758484125 0.29544368386
          0.13442230225 0.53002029657 0.46621054411 0.314527601 0.44687432051 0.41847720742
          0.083882525563 0.31307899952 0.17165030539 0.19758623838 0.21954064071 0.47745373845