<VTKFile type="UnstructuredGrid" version="1.0" byte_order="LittleEndian" header_type="UInt64">
  <UnstructuredGrid>
    <Piece NumberOfPoints="791" NumberOfCells="973">
      <PointData>
        <DataArray type="Float32" Name="ux" format="ascii" RangeMin="-1.4291950464" RangeMax="1.4620500803">
          -0.037014111876 -0.055657561868 -0.036228597164 -0.032060671598 -0.039715960622 -0.033882487565
          -0.053121704608 -0.059471536428 -0.082532741129 -0.079668849707 -0.061768773943 -0.084267571568
          -0.06097188592 -0.077965930104 -0.023558400571 -0.021224385127 -0.021245587617 -0.022094059736
          -0.065035276115 -0.08561309427 -0.062840037048 -0.081266321242 -0.081036657095 -0.010277213529
          -0.022969406098 -0.017864214256 -0.045936848968 -0.056733120233 -0.12629212439 -0.14942295849
          -0.0070335851051 -0.051756672561 -0.066656760871 -0.042848579586 0.0013401855249 0.019755743444
          0.04234771058 -0.12974911928 -0.22967031598 -0.18002690375 -0.052531529218 -0.11719078571
          -0.084931984544 -0.15599830449 -0.070374980569 -0.10425259918 -0.037289850414 -0.043363939971
          0.0012694767211 -0.25545409322 -0.13230448961 -0.063246555626 -0.011432138272 0.015702521428
          0.039317790419 0.047244694084 0.058867175132 -0.22545328736 -0.113371782 -0.11747068167
          -0.22290074825 -0.25512593985 -0.098685115576 -0.0054115243256 -0.2290725559 -0.37291944027
          -0.30194738507 -0.26597514749 -0.19099260867 -0.1040475741 -0.41275784373 -0.13031774759
          -0.014472862706 0.03320004791 -0.36798989773 -0.18897894025 -0.33000198007 -0.37335622311
          -0.16499079764 -0.043075285852 -0.33461868763 -0.52368217707 -0.43248403072 -0.38047397137
          -0.28683340549 -0.17158418894 -0.57927453518 -0.20488670468 -0.056240644306 0.0066780513152
          -0.52358299494 -0.2560107708 -0.43801757693 -0.49433240294 -0.22709052265 -0.068250641227
          -0.44213879108 -0.68658095598 -0.57124376297 -0.5001539588 -0.38262662292 -0.23212522268
          -0.76012921333 -0.27227702737 -0.08414503932 -0.0049494924024 -0.6875449419 -0.27325373888
          -0.51012462378 -0.58293861151 -0.2345469147 -0.032164860517 -0.5159252882 -0.84168088436
          -0.68684476614 -0.59150022268 -0.43760561943 -0.23988574743 -0.93801748753 -0.28898587823
          -0.045409392565 0.05248452723 -0.84008610249 -0.23629777133 -0.51305550337 -0.59975302219
          -0.1859216243 0.051991708577 -0.51737779379 -0.9019382 -0.71967095137 -0.60617023706
          -0.42472985387 -0.1887549907 -1.0144118071 -0.24380403757 0.047426287085 0.15938186646
          -0.8978535533 -0.12323131412 -0.41251194477 -0.50624525547 -0.063182212412 0.18819838762
          -0.40998896956 -0.82433974743 -0.62861400843 -0.50648897886 -0.31505143642 -0.060131516308
          -0.94464868307 -0.11573069543 0.19590757787 0.31069734693 -0.82099485397 0.064053073525
          -0.2495238483 -0.35429671407 0.13146109879 0.40395760536 -0.2467341423 -0.6984629035
          -0.4853772819 -0.35276970267 -0.14366932213 0.13391253352 -0.82860839367 0.071717225015
          0.4124353528 0.53787517548 -0.69523400068 0.27423784137 -0.066715367138 -0.17801424861
          0.34445229173 0.64013075829 -0.069087542593 -0.55383783579 -0.32257962227 -0.18501573801
          0.04572442174 0.34401261806 -0.6913921237 0.27250990272 0.64265501499 0.78183698654
          -0.54739016294 0.48055633903 0.12712101638 0.010297876783 0.55377310514 0.86288410425
          0.12520635128 -0.37593227625 -0.13711246848 0.0052145072259 0.24516788125 0.55326807499
          -0.51766872406 0.47874632478 0.86176711321 1.0079722404 -0.37014576793 0.69245964289
          0.3315282464 0.21088495851 0.76924949884 1.086640954 0.32849794626 -0.18395067751
          0.06207671389 0.20381042361 0.45320752263 0.76970875263 -0.32633861899 0.69028037786
          1.0886383057 1.2385271788 -0.17659877241 0.81217062473 0.44910758734 0.32322502136
          0.89517986774 1.2156422138 0.44688212872 -0.078040257096 0.17492316663 0.31643989682
          0.57205188274 0.89561784267 -0.22240690887 0.81450766325 1.2217886448 1.3755841255
          -0.068399786949 0.77554243803 0.4101459682 0.2834405303 0.85885208845 1.1820218563
          0.41093176603 -0.11254210025 0.13668367267 0.28467321396 0.53500759602 0.85999816656
          -0.26031807065 0.78021794558 1.1855760813 1.3404494524 -0.10966143012 0.62473255396
          0.25260254741 0.12552498281 0.7040271163 1.0312441587 0.25338345766 -0.27324932814
          -0.02429067716 0.12666586041 0.37760663033 0.7050691843 -0.42508116364 0.62485086918
          1.0301017761 1.1853314638 -0.27347767353 0.40243259072 0.028755536303 -0.09547252208
          0.47863647342 0.80481547117 0.029038581997 -0.49613323808 -0.24813754857 -0.096127279103
          0.15365573764 0.47647762299 -0.65123176575 0.39896890521 0.80182307959 0.95792740583
          -0.49712195992 0.18895155191 -0.1792922467 -0.30188205838 0.26375871897 0.58532643318
          -0.17967022955 -0.69986110926 -0.45382335782 -0.30262586474 -0.056716531515 0.264087677
          -0.85039907694 0.18692648411 0.58336806297 0.73521995544 -0.69826877117 -0.026488568634
          -0.38650479913 -0.50435715914 0.045760847628 0.35893559456 -0.38937157393 -0.89672315121
          -0.65578079224 -0.5091317296 -0.26892927289 0.044232271612 -1.0429531336 -0.030125826597
          0.35869547725 0.50713229179 -0.89343631268 -0.23423840106 -0.5913361311 -0.70936787128
          -0.1621119082 0.14820347726 -0.59383243322 -1.098511219 -0.85897070169 -0.71386390924
          -0.47373276949 -0.1624263227 -1.2443643808 -0.23636844754 0.1486479193 0.29484802485
          -1.0950386524 -0.42398044467 -0.78069800138 -0.89898425341 -0.34977328777 -0.038994576782
          -0.77853661776 -1.2841234207 -1.0455302 -0.89795166254 -0.66051638126 -0.34770357609
          -1.4291950464 -0.41974118352 -0.036646492779 0.10929492861 -1.2823804617 -0.018065258861
          -0.033991865814 -0.04506008327 -0.0059269051999 0.011753272265 -0.030426712707 -0.065705157816
          -0.048551425338 -0.038619626313 -0.023411363363 -0.00051484833239 -0.073120161891 -0.0043841293082
          0.0219713673 0.028297873214 -0.064631909132 -0.046055924147 -0.068508155644 -0.046055417508
          -0.045249644667 -0.027454534546 -0.022105203941 -0.0077744540758 0.017317434773 0.0052479295991
          0.003425257979 0.083306081593 0.060248654336 0.053692076355 0.018275596201 0.085892215371
          0.027170771733 0.10621809214 0.0028821788728 -0.012247276492 -0.0036538497079 0.055812824517
          0.020007118583 0.03980826959 -0.00091355142649 0.047028057277 0.0078587410972 0.066567257047
          0.017049895599 0.085698336363 -0.015554214828 0.014060525224 0.012771368958 0.079205669463
          0.024742078036 0.10434483737 0.030338909477 0.11418100446 -0.0085344538093 0.027642725036
          0.15265074372 0.10820539296 0.095335029066 0.16299241781 0.2030120492 0.10486869514
          0.035657573491 0.072059459984 0.086904861033 0.12203857303 0.16291108727 0.019730702043
          0.15136814117 0.20558267832 0.22426743805 0.043891634792 0.18313498795 0.12366843969
          0.10552325845 0.19857606292 0.25089544058 0.12191670388 0.028243068606 0.075333729386
          0.095197692513 0.14412651956 0.20059633255 0.0088889095932 0.18644152582 0.25912150741
          0.28205785155 0.040084548295 0.19263404608 0.12311076373 0.10061059892 0.20833645761
          0.26781907678 0.11736865342 0.010565620847 0.066142134368 0.08883035183 0.14564739168
          0.20897787809 -0.012792202644 0.19306060672 0.27562662959 0.30284756422 0.023671578616
          0.17801098526 0.099060371518 0.073204353452 0.19595478475 0.26621580124 0.095044158399
          -0.026501011103 0.035632174462 0.062794372439 0.12552061677 0.19624838233 -0.055712807924
          0.17644941807 0.2686766088 0.30302473903 -0.016693143174 0.13678495586 0.03134277463
          -0.0045931059867 0.15993189812 0.25441041589 0.030592376366 -0.11736053973 -0.046277206391
          -0.0083127906546 0.067015744746 0.15899477899 -0.15818834305 0.13298527896 0.25049167871
          0.29727867246 -0.11556404084 0.042223189026 -0.086384639144 -0.12649381161 0.063525088131
          0.17611017823 -0.087164498866 -0.25577968359 -0.17702499032 -0.12777112424 -0.045816786587
          0.061125561595 -0.30669185519 0.032094366848 0.16546352208 0.22200477123 -0.25899744034
          -0.073610752821 -0.21576240659 -0.25865742564 -0.052142370492 0.070025719702 -0.22008386254
          -0.40929752588 -0.31969308853 -0.2634126842 -0.17365095019 -0.057295117527 -0.46811422706
          -0.08755698055 0.056410178542 0.1172586605 -0.41082632542 -0.12720561028 -0.27549797297
          -0.31931984425 -0.10509688407 0.021733837202 -0.27946788073 -0.47733640671 -0.38374319673
          -0.32514953613 -0.22964049876 -0.10918715596 -0.53844302893 -0.1396945864 0.0098087461665
          0.072560377419 -0.47865098715 -0.11942330003 -0.27191406488 -0.3218511641 -0.0917898193
          0.041062843055 -0.27607911825 -0.48447999358 -0.38550895452 -0.3261615634 -0.22473575175
          -0.095434002578 -0.54564505816 -0.129791677 0.031648222357 0.096506163478 -0.48455402255
          -0.10374168307 -0.27068659663 -0.32522526383 -0.070381999016 0.075947865844 -0.27607470751
          -0.51003360748 -0.39705169201 -0.33448567986 -0.21722061932 -0.073625192046 -0.57618379593
          -0.11428639293 0.069060571492 0.14099358022 -0.50614053011 -0.12035449594 -0.32621249557
          -0.39130076766 -0.079881571233 0.09872251004 -0.32974869013 -0.62230759859 -0.48097780347
          -0.40138366818 -0.25839865208 -0.081057943404 -0.70290315151 -0.12420767546 0.0985718593
          0.1828699708 -0.61335903406 -0.14994844794 -0.40321561694 -0.48444706202 -0.10193371773
          0.11667510867 -0.40917873383 -0.76721316576 -0.5951205492 -0.49344101548 -0.32201400399
          -0.10389947146 -0.86848139763 -0.15514478087 0.11583179235 0.21842846274 -0.75878870487
          -0.13957627118 -0.4217376709 -0.51083362103 -0.085812367499 0.15459990501 -0.42340955138
          -0.82249552011 -0.63373374939 -0.51531308889 -0.33020237088 -0.085983790457 -0.93839758635
          -0.13978220522 0.15713205934 0.26758563519 -0.81769824028 -0.037908941507 -0.3339855969
          -0.42987456918 0.020844088867 0.27660536766 -0.3329077661 -0.75013166666 -0.55402040482
          -0.42790582776 -0.23563863337 0.021663391963 -0.87339222431 -0.034553911537 0.27963417768
          0.39738243818 -0.74977463484 0.15393075347 -0.15503919125 -0.25559517741 0.21598677337
          0.48359897733 -0.15132637322 -0.5904533267 -0.3840892911 -0.25235044956 -0.050260301679
          0.21905319393 -0.71960830688 0.16018255055 0.4892500937 0.61173993349 -0.59029716253
          0.40450659394 0.082956954837 -0.023897465318 0.47030308843 0.75003105402 0.084590159357
          -0.37079298496 -0.15722951293 -0.020757459104 0.19123002887 0.47227111459 -0.50573319197
          0.40864750743 0.7533891201 0.88262408972 -0.37208563089 0.67981266975 0.34503227472
          0.2324462533 0.74929833412 1.0411906242 0.34595754743 -0.13024319708 0.094573870301
          0.2340259254 0.45773720741 0.751501441 -0.26773539186 0.6839428544 1.0457934141
          1.1817244291 -0.12876191735 0.95474940538 0.61478304863 0.50193870068 1.0249766111
          1.3213630915 0.61274057627 0.1335812211 0.36011201143 0.50013256073 0.72732657194
          1.0236262083 -0.0052270097658 0.95298749208 1.3206878901 1.4620500803 0.13420166075
          -0.045597072691 -0.049822036177 -0.06287727505 -0.031009448692 -0.024339806288 -0.035411864519
          -0.050920974463 -0.051648642868 -0.032621327788 -0.037023160607 -0.02206855081 -0.065268903971
          -0.016853386536 -0.0083932811394 -0.010823453777 -0.069723382592 -0.048799730837 -0.068029358983
          -0.047681260854 -0.047245394439 -0.032882798463 -0.028920654207 -0.018826719373 -0.060648038983
          -0.082457840443 -0.062574602664 -0.0071966852993 -0.015557567589 -0.0071539040655 0.025023888797
          0.058576591313 0.064589291811 0.10793694854 0.1047346741 0.12449021637 0.05682695657
          -0.012099453248 -0.034009028226 -0.0069158347324 0.058795742691 0.047937784344 0.051865745336
          0.098419502378 0.13844838738 0.14892624319 0.20429906249 0.20438095927 0.23082560301
          0.13516004384 -0.027496032417 -0.05164860189 -0.019938884303 0.052622184157 0.040010973811
          0.045984532684 0.096997857094 0.14030991495 0.15112835169 0.20850853622 0.21037752926
          0.23559188843 0.13741916418 -0.046929594129 -0.064613841474 -0.040131609887 0.015645420179
          0.0025014404673 0.0062114666216 0.044667150825 0.081308998168 0.085013866425 0.13018620014
          0.12766288221 0.14880055189 0.07317469269 -0.035470221192 -0.045675192028 -0.03312137723
          -0.0004459337506 -0.01163147483 -0.011729170568 0.011250399984 0.040433555841 0.034916117787
          0.065233483911 0.053229466081 0.069527998567 0.022148046643 3.8986369688e-10 -2.0723986971e-09
          3.3255551091e-11 -4.8262227548e-11 -1.5555515209e-10 1.019065908e-12 2.8548489961e-11 -1.4118636815e-12
          -1.044057893e-13 0 0 0 1.3045764284e-13
        </DataArray>
        <DataArray type="Float32" Name="uy" format="ascii" RangeMin="-1.4258401394" RangeMax="1.6245994568">
          0.020607039332 0.035223606974 0.043139372021 0.061083264649 0.10023688525 0.10006839782
          0.10238748789 0.020659634843 0.031780336052 0.039952039719 0.063086666167 0.10556299984
          0.10340654105 0.090164586902 0.036736264825 0.039380773902 0.098334431648 0.084729135036
          0.050959508866 0.068003356457 0.10241547972 0.052281677723 0.10190322995 0.10060957819
          0.063733398914 0.057476658374 0.06156808883 0.40746667981 0.33648779988 0.40851378441
          0.32351467013 0.27805635333 0.32246974111 0.30620926619 0.2589674294 0.35183998942
          0.28806716204 0.19068405032 0.17653338611 0.2651565671 0.18769450486 0.18126198649
          0.23482188582 0.11849165708 0.14343826473 0.2628300488 0.23115877807 0.21617655456
          0.20119519532 0.26733714342 0.23643644154 0.11597074568 0.13952046633 0.16972316802
          0.1720879972 0.26178634167 0.22848832607 0.35696902871 0.28900873661 0.5237480402
          0.4187669158 0.52709203959 0.37618759274 0.4392528832 0.20413193107 0.18285275996
          0.31326436996 0.099310867488 0.31054258347 0.24204127491 0.31609198451 0.09506995976
          0.17425999045 0.30495554209 0.44792500138 0.63741523027 0.49988397956 0.64200443029
          0.44111961126 0.52572786808 0.21982951462 0.18848994374 0.36064431071 0.083488464355
          0.35870486498 0.26858383417 0.36103779078 0.079260714352 0.17959012091 0.34946003556
          0.53492611647 0.68743240833 0.51019102335 0.69317740202 0.43566739559 0.5412877202
          0.14977054298 0.10687259585 0.33105143905 -0.028800839558 0.32887983322 0.21300376952
          0.32955777645 -0.031455788761 0.097853057086 0.31555393338 0.55602937937 0.63777059317
          0.40730595589 0.64670366049 0.31221863627 0.45017066598 -0.064190879464 -0.12234411389
          0.17241957784 -0.2994004786 0.1700361073 0.023496884853 0.17048193514 -0.29847836494
          -0.1234877035 0.16066433489 0.4656894505 0.45319586992 0.1774418354 0.45867595077
          0.068363502622 0.23748388886 -0.37986662984 -0.44758623838 -0.10080382973 -0.65950906277
          -0.10195720196 -0.27349001169 -0.099918745458 -0.65699416399 -0.4442653954 -0.10407377034
          0.24674172699 0.21516409516 -0.080767862499 0.21815852821 -0.19602741301 -0.011267541908
          -0.68120980263 -0.75136631727 -0.37871944904 -0.98171907663 -0.38094359636 -0.56530499458
          -0.37757447362 -0.97852414846 -0.74689888954 -0.37907633185 -0.00592118036 0.075818002224
          -0.24724598229 0.078097239137 -0.37118709087 -0.16985741258 -0.89770108461 -0.97364991903
          -0.57087653875 -1.22428298 -0.57238948345 -0.77276819944 -0.56683659554 -1.2226082087
          -0.9693069458 -0.56805741787 -0.1660271883 0.020308401436 -0.32796239853 0.021939242259
          -0.46064445376 -0.24271281064 -1.0276567936 -1.1083122492 -0.67661786079 -1.3790950775
          -0.67743885517 -0.89179897308 -0.67205393314 -1.3778721094 -1.1075799465 -0.67246931791
          -0.24229590595 0.022013902664 -0.33930820227 0.023623928428 -0.47910374403 -0.25509268045
          -1.0623697042 -1.1437245607 -0.69843870401 -1.4240490198 -0.70215404034 -0.92579120398
          -0.69446641207 -1.4258401394 -1.149195075 -0.70170611143 -0.2501963675 0.068398430943
          -0.30315673351 0.065777160227 -0.44407847524 -0.21192225814 -1.0451351404 -1.1275882721
          -0.67253375053 -1.4171146154 -0.67410159111 -0.9048153758 -0.6683101058 -1.4221117496
          -1.1359341145 -0.67103672028 -0.21514394879 0.17371700704 -0.20645515621 0.16764055192
          -0.3505011797 -0.1105728671 -0.96754550934 -1.0502462387 -0.58418524265 -1.3476091623
          -0.58603745699 -0.82313555479 -0.5797997117 -1.3540970087 -1.0620929003 -0.58417391777
          -0.11900772154 0.36439183354 -0.019297139719 0.3586037755 -0.1629011929 0.076470218599
          -0.78091984987 -0.86429083347 -0.39715722203 -1.1611316204 -0.40036165714 -0.63769876957
          -0.39539161325 -1.167453289 -0.8778591156 -0.39956530929 0.070203281939 0.61152982712
          0.22785075009 0.6100884676 0.081299826503 0.31901815534 -0.53596800566 -0.62297731638
          -0.15360426903 -0.91725122929 -0.15448008478 -0.39239603281 -0.15309530497 -0.92105561495
          -0.63097155094 -0.1571059525 0.31662681699 0.83559340239 0.45278772712 0.83666580915
          0.30467885733 0.54128831625 -0.31508859992 -0.40474188328 0.068971186876 -0.69689428806
          0.068289145827 -0.17062871158 0.069602951407 -0.69877463579 -0.40755265951 0.064813941717
          0.54411095381 1.009452939 0.63463228941 1.0119644403 0.48804849386 0.71910399199
          -0.11808601022 -0.20674811304 0.25910919905 -0.49558457732 0.25627142191 0.02275569737
          0.26157289743 -0.49591448903 -0.20972616971 0.25370684266 0.72581529617 1.1917831898
          0.82431411743 1.1918866634 0.68385285139 0.91198152304 0.087166696787 -0.00012040310685
          0.45585218072 -0.28260296583 0.45549225807 0.22780023515 0.45641702414 -0.28262531757
          -2.0716377549e-05 0.45605421066 0.91088557243 1.4031009674 1.0380871296 1.40260005
          0.89886385202 1.1240605116 0.3081791997 0.22063666582 0.67251098156 -0.058309495449
          0.67363911867 0.44842460752 0.67177855968 -0.057132590562 0.22306612134 0.67425560951
          1.1241208315 1.6245994568 1.2614831924 1.6244080067 1.120732069 1.3462445736
          0.53364664316 0.4482395649 0.89890211821 0.16845670342 0.89733910561 0.6724011898
          0.89981371164 0.16735821962 0.44643169641 0.89511317015 1.3472013474 0.20500671864
          0.18938420713 0.20523098111 0.18222124875 0.19179734588 0.15433456004 0.15458743274
          0.17460416257 0.13723999262 0.17174115777 0.15939415991 0.176736027 0.1329356581
          0.1462945044 0.1695497781 0.19514973462 0.10033783317 0.10046502948 0.10089907795
          0.10034506023 0.10085759312 0.10178964585 0.10222616792 0.1836784482 0.19210124016
          0.18227785826 0.31244885921 0.33416050673 0.31033694744 0.19682484865 0.34512925148
          0.19163863361 0.33200609684 0.21139653027 0.21359798312 0.20070064068 0.38227510452
          0.38597255945 0.35577949882 0.2225291729 0.40714949369 0.2014734745 0.35898596048
          0.2089805603 0.37433552742 0.199614048 0.35410964489 0.22323536873 0.40856158733
          0.21718341112 0.39065870643 0.20486362278 0.36132222414 0.18892671168 0.32555124164
          0.39421480894 0.44110262394 0.39349937439 0.46020206809 0.42930260301 0.54151630402
          0.54939460754 0.48895996809 0.59105604887 0.49068418145 0.52297788858 0.48549920321
          0.59269976616 0.55462437868 0.48987594247 0.42701214552 0.43286222219 0.49477148056
          0.43286430836 0.51918876171 0.47808164358 0.6232560277 0.63383364677 0.55541276932
          0.69155478477 0.55829572678 0.59983450174 0.55035382509 0.69385319948 0.64106220007
          0.5569934845 0.47525295615 0.36345750093 0.43419024348 0.3631362617 0.46159011126
          0.41422131658 0.58265221119 0.59487235546 0.50577312708 0.65873837471 0.50780171156
          0.55283337831 0.49939998984 0.66071492434 0.59818422794 0.50231039524 0.41309654713
          0.15161022544 0.23524044454 0.15090696514 0.26720768213 0.21232779324 0.40868121386
          0.42562475801 0.32059711218 0.49559679627 0.32133764029 0.37532824278 0.3164305985
          0.49745470285 0.42861962318 0.31855612993 0.2123491019 -0.17894411087 -0.070700757205
          -0.17805890739 -0.028047781438 -0.094399899244 0.14476703107 0.16860672832 0.036465913057
          0.25190210342 0.037069138139 0.10584443808 0.035392180085 0.25539922714 0.17517106235
          0.042136605829 -0.09539539367 -0.45656478405 -0.32893553376 -0.45705208182 -0.27847951651
          -0.35405546427 -0.07872723788 -0.049800872803 -0.20449496806 0.044742308557 -0.20296829939
          -0.12201879919 -0.20130695403 0.049305144697 -0.040687687695 -0.1939663738 -0.35759976506
          -0.59122163057 -0.45331397653 -0.595731318 -0.39611390233 -0.47721105814 -0.17379406095
          -0.13968023658 -0.31295898557 -0.035707063973 -0.31222370267 -0.22534762323 -0.31161442399
          -0.035832505673 -0.13746793568 -0.30493947864 -0.48804444075 -0.63861042261 -0.49570542574
          -0.6450112462 -0.4365914464 -0.52136343718 -0.20368896425 -0.16661739349 -0.34962263703
          -0.058487452567 -0.34875881672 -0.25836116076 -0.34677919745 -0.059403792024 -0.16656729579
          -0.34151494503 -0.53195518255 -0.59164130688 -0.43998879194 -0.59394258261 -0.38133862615
          -0.4715270102 -0.13807012141 -0.10180719197 -0.28873005509 0.012470283546 -0.2897914052
          -0.19527499378 -0.28697904944 0.013918136247 -0.09810140729 -0.28354895115 -0.47534662485
          -0.48044061661 -0.30971908569 -0.48169159889 -0.2444460094 -0.34849077463 0.029929479584
          0.068279899657 -0.14004644752 0.19832909107 -0.13989508152 -0.034648206085 -0.14089760184
          0.20044200122 0.072956353426 -0.13846388459 -0.35170739889 -0.41460493207 -0.20793476701
          -0.41749051213 -0.12537479401 -0.25384986401 0.21254199743 0.25768056512 -0.0004159961245
          0.42337739468 0.0022752957884 0.13425162435 -0.0048478310928 0.42554914951 0.26499646902
          0.004705988802 -0.26136553288 -0.41972631216 -0.16435660422 -0.42316699028 -0.064737163484
          -0.22247838974 0.3530202806 0.41285246611 0.093190141022 0.61252850294 0.095311626792
          0.25342735648 0.089765578508 0.61109268665 0.41088551283 0.093153625727 -0.22934904695
          -0.45754024386 -0.17526225746 -0.46160250902 -0.065511770546 -0.24019029737 0.39491224289
          0.46329349279 0.10877613723 0.68302619457 0.10913561285 0.28344023228 0.10718804598
          0.67852646112 0.45709916949 0.10685774684 -0.24680669606 -0.50474828482 -0.2049587369
          -0.50836247206 -0.08913410455 -0.27493020892 0.39955803752 0.47260653973 0.096768133342
          0.70275330544 0.096283875406 0.28156107664 0.096903085709 0.69788992405 0.46537795663
          0.095231376588 -0.27888840437 -0.55715316534 -0.24250842631 -0.55784970522 -0.12236118317
          -0.31660872698 0.39347454906 0.47097313404 0.075519070029 0.71402025223 0.073671884835
          0.2693400681 0.0750143677 0.70931380987 0.46358585358 0.071931377053 -0.31803122163
          -0.61908143759 -0.2900390327 -0.62055003643 -0.1661156863 -0.36911830306 0.36979499459
          0.44974112511 0.03968616575 0.70182001591 0.039768140763 0.24175368249 0.039675168693
          0.69875448942 0.44312548637 0.035875037313 -0.3687993288 -0.72414141893 -0.38340055943
          -0.72519731522 -0.25214102864 -0.46198156476 0.30430078506 0.38716715574 -0.040738835931
          0.65102785826 -0.040052838624 0.17254462838 -0.04208156839 0.65145665407 0.38451275229
          -0.039280310273 -0.46488368511 -0.82267183065 -0.47302433848 -0.82206743956 -0.34059461951
          -0.5567175746 0.22335089743 0.30560475588 -0.12476982176 0.57132720947 -0.12455452234
          0.090472087264 -0.12394043058 0.57222390175 0.30683973432 -0.12483756989 -0.55587929487
          -0.00014279328752 0.030520241708 -0.0034588319249 0.044104401022 0.02697709389 0.089766636491
          0.097368821502 0.060471639037 0.1195102632 0.061210721731 0.080404341221 0.060681451112
          0.11976200342 0.099373213947 0.06505805254 0.021986434236 0.070745185018 0.074367016554
          0.089487567544 0.052139677107 0.065343298018 0.089552462101 0.077780149877 0.13241381943
          0.071940973401 0.010713028722 -0.027004351839 0.071296937764 0.16873598099 0.070794686675
          -0.025830885395 0.070934489369 0.012303985655 0.13015568256 0.072308838367 0.16634306312
          0.22069732845 0.14401705563 0.067050211132 0.018810017034 0.1443426013 0.27065598965
          0.14497134089 0.017821675166 0.14417870343 0.065037354827 0.22539488971 0.14432439208
          0.27296754718 0.26938346028 0.18443566561 0.10262770206 0.054765339941 0.1881646812
          0.32565197349 0.18897368014 0.055843494833 0.18936303258 0.10464789718 0.27115726471
          0.18666647375 0.32516553998 0.21072141826 0.14746324718 0.086502477527 0.04986262694
          0.15016080439 0.2505659759 0.1499684006 0.051460612565 0.14977385104 0.088256418705
          0.20992638171 0.14912819862 0.25079894066 0.079206757247 0.048422645777 0.016458630562
          -0.0024613533169 0.048205383122 0.098312228918 0.049389220774 0.0017660586163 0.051600955427
          0.026159711182 0.083628714085 0.057640727609 0.099593535066 -3.1092805414e-11 -1.0300883063e-10
          6.4069229089e-11 -2.6159484301e-11 3.6304039202e-12 6.1349098544e-12 -3.4429856969e-12 1.202483344e-13
          -3.8337079821e-13 0 0 0 -1.7209200915e-13
        </DataArray>
        <DataArray type="Float32" Name="uz" format="ascii" RangeMin="-0.41579848528" RangeMax="0.51156324148">
          0.071501322091 0.064496025443 0.082327365875 0.077611848712 0.078430168331 0.072283521295
          0.070942223072 0.060120504349 0.046273447573 0.057607024908 0.070013992488 0.061181653291
          0.073850177228 0.0687456429 0.097698301077 0.081643916667 0.075100496411 0.084639057517
          0.056655850261 0.059342779219 0.062510989606 0.042922779918 0.058834645897 0.076328098774
          0.086424306035 0.10346907377 0.074452161789 0.033335022628 0.006544935517 0.022967249155
          0.027649033815 0.017352806404 0.027746682987 0.0086208544672 0.015287351795 0.028275579214
          0.022070363164 -0.029679438099 -0.04731946066 -0.016740316525 0.0016741069267 -0.0062869866379
          0.0072165746242 -0.054853018373 -0.0083604389802 -0.0081024505198 0.0097710685804 -0.012739215046
          0.007538867183 -0.026766635478 0.0031753892545 -0.041769526899 -0.0023879592773 -0.016803704202
          0.006639381405 0.0098152887076 0.014787257649 0.00038465438411 0.016705878079 0.016800036654
          -0.017655786127 0.0020750728436 -0.013600797392 0.011279762723 -0.065831318498 -0.090320810676
          -0.050226453692 -0.094337940216 -0.038117967546 -0.042725030333 -0.065565191209 -0.077458903193
          -0.046806074679 -0.013444798067 -0.028943736106 -0.018148003146 -0.04492655769 -0.019412057474
          -0.055190868676 -0.036567687988 -0.098592713475 -0.10912708193 -0.0729836151 -0.12593562901
          -0.071909114718 -0.088302321732 -0.076800026 -0.12275148928 -0.10240462422 -0.069822579622
          -0.041458260268 -0.082908637822 -0.077664375305 -0.04878712073 -0.11828540266 -0.12644727528
          -0.12132675946 -0.090886250138 -0.080033510923 -0.13468955457 -0.10844796151 -0.14523309469
          -0.053061325103 -0.16818252206 -0.18042111397 -0.16467702389 -0.036780402064 -0.17099225521
          -0.12158563733 -0.096016660333 -0.18950992823 -0.23539455235 -0.12998233736 -0.052281912416
          -0.08430916816 -0.11663541943 -0.14426261187 -0.19520752132 -0.022489495575 -0.19142664969
          -0.24773217738 -0.26441583037 -0.039832279086 -0.25036141276 -0.16521455348 -0.15661506355
          -0.24141314626 -0.31365540624 -0.12700553238 -0.019639940932 -0.094268485904 -0.083072155714
          -0.16977138817 -0.21832747757 -0.014109318145 -0.17960076034 -0.27156224847 -0.32157817483
          -0.067724354565 -0.29261773825 -0.19539448619 -0.21229881048 -0.25315976143 -0.33038157225
          -0.11901368201 -0.022592488676 -0.11296080053 -0.057989742607 -0.17803937197 -0.20729719102
          -0.046694401652 -0.14081974328 -0.23665860295 -0.30911615491 -0.11938566715 -0.29827511311
          -0.20803123713 -0.24513763189 -0.23728089035 -0.30178251863 -0.11098181456 -0.043270934373
          -0.12864434719 -0.050050117075 -0.17189379036 -0.17770384252 -0.086419120431 -0.10396333784
          -0.18226391077 -0.25726574659 -0.16381420195 -0.29016506672 -0.22056038678 -0.26874119043
          -0.22087079287 -0.26794525981 -0.11394189298 -0.077802330256 -0.15383176506 -0.057315647602
          -0.1726026386 -0.15566399693 -0.13634200394 -0.080581724644 -0.13926397264 -0.21085996926
          -0.20982907712 -0.28857156634 -0.23492331803 -0.28900453448 -0.21603679657 -0.24981832504
          -0.1303897351 -0.11782635748 -0.1830585897 -0.07542963326 -0.18271017075 -0.15146902204
          -0.18550334871 -0.077321022749 -0.11850085855 -0.18504917622 -0.2509572804 -0.26874104142
          -0.24064262211 -0.29014000297 -0.20580241084 -0.22004367411 -0.16037245095 -0.16992820799
          -0.21265105903 -0.11994583905 -0.19520221651 -0.15514026582 -0.22832144797 -0.099885568023