<VTKFile type="UnstructuredGrid" version="1.0" byte_order="LittleEndian" header_type="UInt64">
  <UnstructuredGrid>
    <Piece NumberOfPoints="791" NumberOfCells="973">
      <PointData>
        <DataArray type="Float32" Name="ux" format="ascii" RangeMin="-0.63170295954" RangeMax="0.24430526793">
          0.13424095511 0.14963580668 0.14034487307 0.13135890663 0.13384780288 0.14029476047
          0.14936515689 0.14539851248 0.16384635866 0.15548115969 0.1449662447 0.16309589148
          0.14494210482 0.1552953124 0.12635394931 0.12630066276 0.12619823217 0.12621514499
          0.16340121627 0.16305020452 0.16325685382 0.17414547503 0.17376601696 0.1318667084
          0.12617500126 0.13146205246 0.13721442223 0.20757675171 0.21468907595 0.2167403698
          0.18808478117 0.19539432228 0.19770805538 0.20630788803 0.18648576736 0.20032165945
          0.18020866811 0.21477396786 0.22514282167 0.22016341984 0.19541937113 0.20640181005
          0.20109887421 0.21707165241 0.19793310761 0.2124273479 0.19292362034 0.20617045462
          0.18624618649 0.2280061692 0.20934747159 0.20726175606 0.18744802475 0.1997885257
          0.17940180004 0.19730056822 0.17680992186 0.22461563349 0.2058737576 0.22076191008
          0.22751565278 0.22942015529 0.21961729228 0.21398891509 0.22758258879 0.23740753531
          0.23272544146 0.2296911031 0.22539241612 0.21947082877 0.24018734694 0.22043479979
          0.21346981823 0.2111838758 0.23695628345 0.22592294216 0.23233062029 0.23410302401
          0.22490008175 0.21958225965 0.23237474263 0.24163664877 0.23725128174 0.23431579769
          0.23033156991 0.22476449609 0.24430526793 0.22561949492 0.21913363039 0.21700029075
          0.24124124646 0.22246572375 0.22848416865 0.23010216653 0.22154608369 0.21658226848
          0.22854347527 0.23723061383 0.23311266303 0.23034530878 0.22663216293 0.2214307785
          0.23974871635 0.22220127285 0.21616430581 0.21417595446 0.23684264719 0.20998923481
          0.21555039287 0.2170303911 0.20916759968 0.20459248126 0.21559676528 0.22358681262
          0.21982291341 0.21722450852 0.21384562552 0.20906598866 0.22594818473 0.20974318683
          0.20421750844 0.20240888 0.22325816751 0.18848995864 0.19364067912 0.19500359893
          0.18774828315 0.18351598084 0.19366112351 0.20102927089 0.19756729901 0.1951405853
          0.19206553698 0.18764825165 0.20321393013 0.18827405572 0.18320249021 0.18153090775
          0.20075772703 0.15844222903 0.16326779127 0.16456086934 0.15776149929 0.1537912786
          0.16330990195 0.1701554507 0.16694968939 0.16469778121 0.16180425882 0.15770253539
          0.1722099185 0.15831105411 0.153574422 0.15196885169 0.16993680596 0.12074641138
          0.12525142729 0.12645933032 0.12011352926 0.1163963899 0.12528249621 0.13163359463
          0.12866549194 0.1265706718 0.1238829121 0.12006366253 0.13355231285 0.12063699961
          0.11622137576 0.11470578611 0.13146010041 0.076106727123 0.080317787826 0.081446863711
          0.075511038303 0.07204311341 0.080352663994 0.086295858026 0.08351790905 0.081548161805
          0.07904073596 0.075462162495 0.08809556812 0.075992569327 0.071860894561 0.070456422865
          0.086136780679 0.024817496538 0.028836002573 0.029918063432 0.02424720861 0.020934667438
          0.028862381354 0.034553416073 0.031888335943 0.030010728166 0.027613094077 0.024193426594
          0.036268562078 0.024700565264 0.020746445283 0.019404407591 0.034391384572 -0.032723225653
          -0.02882190235 -0.027766287327 -0.033302184194 -0.036523196846 -0.028799422085 -0.023235663772
          -0.025847133249 -0.027653081343 -0.030011715367 -0.033352069557 -0.021584967151 -0.032839134336
          -0.03670784086 -0.038027703762 -0.023416940123 -0.096041686833 -0.09227783978 -0.091247200966
          -0.096619844437 -0.099744282663 -0.092250563204 -0.08688057214 -0.089410252869 -0.091120891273
          -0.093446567655 -0.096675798297 -0.08530857414 -0.096152335405 -0.099928304553 -0.10121281445
          -0.087068043649 -0.16432842612 -0.16069512069 -0.15966594219 -0.16492249072 -0.16796706617
          -0.16065569222 -0.15545730293 -0.15792518854 -0.15952445567 -0.16183036566 -0.16496871412
          -0.15396462381 -0.1644115895 -0.16813501716 -0.16941353679 -0.15565800667 -0.2365654707
          -0.23298199475 -0.23193484545 -0.237185359 -0.2402151078 -0.23291677237 -0.22779209912
          -0.23024815321 -0.23176956177 -0.23411303759 -0.23720410466 -0.22634349763 -0.23659533262
          -0.24033875763 -0.24166540802 -0.22798617184 -0.31159824133 -0.30793187022 -0.30680689216
          -0.31227114797 -0.31541112065 -0.30790275335 -0.30268225074 -0.30516046286 -0.30672153831
          -0.30910986662 -0.31229656935 -0.3011867404 -0.31163418293 -0.31549480557 -0.31689503789
          -0.30280077457 -0.38842844963 -0.38467285037 -0.38349166512 -0.38914605975 -0.39237618446
          -0.38465812802 -0.3793310225 -0.38184949756 -0.38343715668 -0.3858935535 -0.38915905356
          -0.37777844071 -0.38846486807 -0.39243647456 -0.39389976859 -0.37939471006 -0.46683526039
          -0.46302708983 -0.46179333329 -0.46758529544 -0.47087839246 -0.46304428577 -0.45765483379
          -0.46018511057 -0.46180409193 -0.46429085732 -0.46760100126 -0.45606139302 -0.46688079834
          -0.47091072798 -0.47242632508 -0.45767375827 -0.54625988007 -0.54247498512 -0.54123324156
          -0.54702216387 -0.550311625 -0.54247546196 -0.53712356091 -0.53964883089 -0.5412285924
          -0.54372984171 -0.54702711105 -0.53555756807 -0.54627299309 -0.55032706261 -0.551869452
          -0.53713268042 -0.62607038021 -0.62228471041 -0.62101739645 -0.62684559822 -0.63015305996
          -0.62228304148 -0.61694031954 -0.61945843697 -0.6210283041 -0.62353998423 -0.62684333324
          -0.61537867785 -0.62606841326 -0.63014686108 -0.63170295954 -0.61693739891 0.15410254896
          0.16673329473 0.16560064256 0.15796034038 0.14800675213 0.17484720051 0.18804578483
          0.17718368769 0.18179792166 0.16792427003 0.16292718053 0.18646939099 0.17017179728
          0.15781955421 0.14943984151 0.17785771191 0.16247631609 0.17783382535 0.17224355042
          0.15275946259 0.14829798043 0.15929484367 0.14390441775 0.17752015591 0.18651333451
          0.18937426805 0.19045437872 0.20000636578 0.20293796062 0.17561334372 0.1885958463
          0.16784313321 0.1804112345 0.18659463525 0.19991020858 0.19347465038 0.2001401782
          0.21397443116 0.20730344951 0.18970397115 0.20336568356 0.18352536857 0.1969152838
          0.17541995645 0.18850250542 0.20349492133 0.21776337922 0.17701983452 0.19025661051
          0.16713270545 0.17996954918 0.16379232705 0.176349774 0.19934147596 0.21340370178
          0.19946533442 0.20947130024 0.21257652342 0.19756117463 0.18897399306 0.20957238972
          0.22390399873 0.21706660092 0.2128688693 0.20624169707 0.19748532772 0.22796748579
          0.19931723177 0.18865716457 0.18481938541 0.22351747751 0.20386627316 0.21430549026
          0.21754309535 0.20194278657 0.1929885298 0.21439011395 0.22916138172 0.22215498984
          0.21775470674 0.21094895899 0.20191562176 0.23344232142 0.20384469628 0.1928486377
          0.18879652023 0.22891570628 0.2034368813 0.21426939964 0.21765339375 0.20145094395
          0.1921441257 0.21432204545 0.22956366837 0.22237201035 0.21778534353 0.21078003943
          0.20144189894 0.23403573036 0.20345504582 0.19210222363 0.18784934282 0.22941371799
          0.19817435741 0.20936112106 0.21288956702 0.19609022141 0.18646165729 0.20939545333
          0.22508141398 0.21769948304 0.21297672391 0.20573979616 0.19610087574 0.22971627116
          0.19821928442 0.18646532297 0.18202695251 0.22500416636 0.18857859075 0.20011198521
          0.20379622281 0.18640708923 0.17645773292 0.20012933016 0.2162810117 0.20869107544
          0.20382194221 0.19635383785 0.18643012643 0.22108079493 0.18865120411 0.17652472854
          0.17189349234 0.21627625823 0.17548266053 0.18739892542 0.19124168158 0.17321568727
          0.16292373836 0.18739877641 0.20406271517 0.19624699652 0.19122007489 0.18350376189
          0.17325824499 0.20905019343 0.17558440566 0.16305290163 0.15822868049 0.20414070785
          0.15927511454 0.17162825167 0.17563909292 0.15693278611 0.14623780549 0.17160798609
          0.18882517517 0.18078789115 0.17555122077 0.16759133339 0.15698474646 0.19403666258
          0.15938845277 0.14642113447 0.14139443636 0.18898899853 0.13983818889 0.15258933604
          0.15672704577 0.13743877411 0.12641735375 0.15255239606 0.17023557425 0.16200071573
          0.15657089651 0.14841942489 0.13750220835 0.17564472556 0.13997419178 0.12664465606
          0.12145553529 0.17048409581 0.11684264243 0.12991189957 0.13417389989 0.1143816337
          0.10306885093 0.12984019518 0.14791727066 0.13953146338 0.13394916058 0.12562689185
          0.11445402354 0.15348337591 0.11699728668 0.10336194187 0.098014704883 0.14824920893
          0.090321794152 0.10369933397 0.10809455067 0.087793111801 0.076199583709 0.10361890495
          0.12208577991 0.11352857947 0.10781604797 0.099309809506 0.087885409594 0.12779907882
          0.090521253645 0.07656159997 0.071048013866 0.12248461694 0.060819365084 0.074391938746
          0.078867316246 0.058228060603 0.046447068453 0.074322037399 0.093078278005 0.084369629622
          0.078605771065 0.069930829108 0.058322388679 0.098855279386 0.061023447663 0.046811308712
          0.041193142533 0.093460835516 0.02874692902 0.042405687273 0.046894282103 0.026124624535
          0.014263551682 0.042340386659 0.061260588467 0.052454229444 0.046683967113 0.037913952023
          0.026203647256 0.067029975355 0.028925118968 0.014582375064 0.0089389365166 0.061578549445
          -0.0056585366838 0.008066422306 0.012576783076 -0.0083223422989 -0.020240280777 0.0080272443593
          0.027126612142 0.018200356513 0.012438507751 0.0035443620291 -0.0082536125556 0.032889984548
          -0.005497104954 -0.019988270476 -0.02564432472 0.027351124212 -0.042087838054 -0.028235739097
          -0.02368719317 -0.044815719128 -0.056856021285 -0.028247850016 -0.0088696135208 -0.017963120714
          -0.02373935096 -0.032807201147 -0.044767003506 -0.003092730185 -0.041979685426 -0.056703262031
          -0.062395185232 -0.0087524000555 -0.080344416201 -0.066324785352 -0.061695896089 -0.083161592484
          -0.095361173153 -0.066335402429 -0.046635486186 -0.055903501809 -0.06173080951 -0.070965126157
          -0.083132378757 -0.04081523791 -0.080293320119 -0.095270261168 -0.10103546083 -0.046573363245
          -0.11977794021 -0.10566645861 -0.10098752379 -0.12265122682 -0.13495361805 -0.10568125546
          -0.085807397962 -0.095174200833 -0.10101570189 -0.11036224663 -0.12263646722 -0.079972162843
          -0.11975370347 -0.13490103185 -0.14071489871 -0.085773430765 -0.15972745419 -0.14568172395
          -0.1410048306 -0.16260407865 -0.17486211658 -0.14567784965 -0.12585198879 -0.13521212339
          -0.14100427926 -0.15036268532 -0.16260026395 -0.12005133182 -0.15970741212 -0.17483523488
          -0.18062674999 -0.12584482133 -0.19976726174 -0.18572854996 -0.18104875088 -0.20265695453
          -0.21490681171 -0.18574374914 -0.16591650248 -0.17527283728 -0.18106672168 -0.19041097164
          -0.20266395807 -0.16012781858 -0.19977624714 -0.21490028501 -0.22067527473 -0.1659040451
          0.15338641405 0.16559545696 0.16572284698 0.15562789142 0.14581495523 0.17180334032
          0.18586915731 0.17562228441 0.17800876498 0.16558857262 0.15934318304 0.18570879102
          0.16530057788 0.15293559432 0.14562797546 0.1779179424 0.16208049655 0.1775777638
          0.17132556438 0.15270181 0.14783282578 0.15809576213 0.14286573231 0.11567059159
          0.11815401912 0.11548437923 0.10880599171 0.11003625393 0.10909616202 0.10502985865
          0.10089315474 0.10006528348 0.094605088234 0.094661131501 0.09223728627 0.10110645741
          0.079711824656 0.081454344094 0.079677805305 0.075031131506 0.075646750629 0.075114071369
          0.071976721287 0.069079138339 0.068286001682 0.064165271819 0.064265578985 0.062344804406
          0.069200985134 0.047503046691 0.048628572375 0.047469519079 0.044535320252 0.04478675127
          0.044630568475 0.04234662652 0.040563553572 0.039855692536 0.037083335221 0.037183456123
          0.035850323737 0.040700148791 0.022420544177 0.023054279387 0.022381354123 0.02077450417
          0.020735889673 0.020852345973 0.019246248528 0.018333790824 0.017705155537 0.015994410962
          0.016064951196 0.0151859615 0.018424004316 0.0064650988206 0.006652481854 0.0064072143286
          0.0060189077631 0.0056017795578 0.0061222654767 0.0048880004324 0.0048365471885 0.0041203079745
          0.00330507732 0.0033739397768 0.0028377210256 0.0049424073659 -1.1929831038e-12 -5.982439804e-12
          -1.2011929645e-11 1.55229757e-12 1.6311582076e-12 1.0493282675e-12 -5.6358677491e-13 -1.5426596022e-14
          5.8317193509e-15 0 0 0 5.2143932686e-15
        </DataArray>
        <DataArray type="Float32" Name="uy" format="ascii" RangeMin="-1.3031270504" RangeMax="0.785543859">
          0.013930160552 0.013459604234 0.012944819406 -0.0019194349879 -0.017796410248 -0.016350043938
          -0.016942230985 0.01410732884 0.014268591069 0.0082745151594 -0.0018012736691 -0.017548350617
          -0.017815602943 -0.011743174866 0.013812248595 0.0080314921215 -0.017438000068 -0.011897135526
          0.01253172569 -0.0016991231823 -0.015654325485 0.012761635706 -0.015772132203 -0.015498618595
          -0.0019151235465 0.012559533119 -0.0018737586215 -0.13220073283 -0.12519085407 -0.13250826299
          -0.1032961309 -0.095973812044 -0.10345748812 -0.12237276882 -0.09308218956 -0.12681815028
          -0.097731329501 -0.11044988036 -0.10867608339 -0.11795447767 -0.080496504903 -0.078763611615
          -0.088405825198 -0.10286723077 -0.072524562478 -0.117875278 -0.088334970176 -0.11345131695
          -0.08363943547 -0.11819045246 -0.088650792837 -0.10319617391 -0.072753041983 -0.10920540243
          -0.079119548202 -0.11819688976 -0.08866301924 -0.1273060739 -0.098030209541 -0.16760239005
          -0.1610827595 -0.16796423495 -0.15841116011 -0.16252277792 -0.14722667634 -0.14547872543
          -0.1542647481 -0.14006622136 -0.15421704948 -0.15008912981 -0.15446446836 -0.1404812783
          -0.14616890252 -0.15453575552 -0.16309553385 -0.20898023248 -0.20285749435 -0.20938996971
          -0.20030578971 -0.20413401723 -0.18977709115 -0.18809902668 -0.19642364979 -0.18302287161
          -0.19636125863 -0.19248840213 -0.19661197066 -0.18346825242 -0.18881723285 -0.19663088024
          -0.20480558276 -0.25558763742 -0.24989487231 -0.25602817535 -0.24747045338 -0.25103035569
          -0.23760607839 -0.23600684106 -0.24385432899 -0.23125813901 -0.24378977716 -0.24015769362
          -0.24403257668 -0.23171119392 -0.2367349416 -0.24402534962 -0.25175711513 -0.30706992745
          -0.30182978511 -0.30750226974 -0.29959079623 -0.30285447836 -0.29050371051 -0.28899258375
          -0.29625076056 -0.28464430571 -0.29620358348 -0.2928622067 -0.29640454054 -0.28510835767
          -0.28974300623 -0.29642412066 -0.30356451869 -0.36311715841 -0.35830551386 -0.3635276258
          -0.35622659326 -0.35920894146 -0.34788683057 -0.3464820683 -0.35317334533 -0.3424936831
          -0.35312792659 -0.3500469327 -0.35330176353 -0.34292376041 -0.34716632962 -0.35328623652
          -0.35989069939 -0.42284694314 -0.41833797097 -0.42322298884 -0.4163993597 -0.41916698217
          -0.40863388777 -0.40731403232 -0.41354489326 -0.40362873673 -0.41350880265 -0.41063559055
          -0.41364091635 -0.40401023626 -0.40792900324 -0.41362413764 -0.41979849339 -0.48517662287
          -0.48096081614 -0.48551180959 -0.47915282845 -0.48174324632 -0.47191461921 -0.47068402171
          -0.47647866607 -0.46726763248 -0.47646012902 -0.47378054261 -0.4765496552 -0.46761372685
          -0.47123771906 -0.47655013204 -0.48229461908 -0.54955333471 -0.54560345411 -0.5498663187
          -0.54393225908 -0.54635000229 -0.53714871407 -0.53598821163 -0.54141324759 -0.53278744221
          -0.54140216112 -0.53889805079 -0.54147183895 -0.53311651945 -0.5365331769 -0.5415033102
          -0.54684644938 -0.6159054637 -0.61212736368 -0.61620044708 -0.61052125692 -0.61284887791
          -0.60401421785 -0.60291326046 -0.60810738802 -0.59984236956 -0.60808932781 -0.60569536686
          -0.60817867517 -0.60015612841 -0.60342788696 -0.60820567608 -0.61332273483 -0.68464589119
          -0.68095475435 -0.68492138386 -0.6793885231 -0.68167364597 -0.6730542779 -0.67200642824
          -0.67705231905 -0.66898989677 -0.6770285964 -0.67467850447 -0.67713755369 -0.66927576065
          -0.67245733738 -0.67713046074 -0.68213355541 -0.75571972132 -0.75213891268 -0.75597131252
          -0.75062900782 -0.75284790993 -0.74452584982 -0.74354225397 -0.74838203192 -0.74061393738
          -0.74834853411 -0.74607217312 -0.7484728694 -0.74085283279 -0.74392104149 -0.74844419956
          -0.75327467918 -0.82912635803 -0.82563096285 -0.82933092117 -0.82417827845 -0.8263566494
          -0.81824493408 -0.81732571125 -0.82199501991 -0.81446349621 -0.82195156813 -0.81973403692
          -0.82208251953 -0.8146443367 -0.81760114431 -0.82203984261 -0.82669532299 -0.90506321192
          -0.90155696869 -0.90520626307 -0.90013462305 -0.90232121944 -0.89423304796 -0.89334392548
          -0.89794284105 -0.89050114155 -0.89791101217 -0.89569211006 -0.89801758528 -0.89062768221
          -0.89353567362 -0.89798599482 -0.90257245302 -0.98325657845 -0.97961181402 -0.98335599899
          -0.97816187143 -0.98042356968 -0.97212558985 -0.97122460604 -0.97589641809 -0.96832841635
          -0.97587430477 -0.9735866785 -0.97595500946 -0.96841627359 -0.97134548426 -0.97592043877
          -0.98059338331 -1.0626564026 -1.058889389 -1.0627317429 -1.0574035645 -1.0597411394
          -1.0512043238 -1.050276041 -1.0550628901 -1.0473351479 -1.0550559759 -1.0527052879
          -1.0550817251 -1.0474057198 -1.0503876209 -1.0550814867 -1.059858799 -1.1425266266
          -1.1386749744 -1.1425856352 -1.1371611357 -1.1395382881 -1.130875349 -1.1299443245
          -1.134790659 -1.1269664764 -1.134771347 -1.1323806047 -1.1348131895 -1.1270190477
          -1.130014658 -1.1347776651 -1.1396547556 -1.2227386236 -1.2188780308 -1.2227655649
          -1.217384696 -1.2197797298 -1.2111040354 -1.2101808786 -1.2149972916 -1.2072126865
          -1.2149914503 -1.2125943899 -1.2150017023 -1.2072371244 -1.2102142572 -1.2149995565
          -1.2198152542 -1.3031233549 -1.2992430925 -1.3031270504 -1.2977620363 -1.3001512289
          -1.2914750576 -1.2905532122 -1.2953603268 -1.2875878811 -1.2953603268 -1.2929623127
          -1.2953648567 -1.2875919342 -1.2905617952 -1.295360446 -1.3001637459 -0.061716455966
          -0.058209106326 -0.06180152297 -0.056782726198 -0.059076260775 -0.050363671035 -0.049609221518
          -0.054463479668 -0.046268675476 -0.054384209216 -0.051993727684 -0.054680675268 -0.046349592507
          -0.049735691398 -0.054656885564 -0.059260141104 -0.014375896193 -0.014204180799 -0.013287032954
          -0.015569486655 -0.014740243554 -0.013193378225 -0.014008276165 0.11276176572 0.10368543863
          0.1129084304 0.14795464277 0.13834427297 0.14817625284 0.10012839735 0.13455550373
          0.10587006062 0.14062218368 0.084843091667 0.082809656858 0.094450488687 0.1185387373
          0.11626544595 0.12858310342 0.075270265341 0.10845890641 0.09433594346 0.12848855555
          0.088584899902 0.12243756652 0.094743423164 0.12883138657 0.075422108173 0.1086512208
          0.083025597036 0.11653009057 0.094655163586 0.12874335051 0.10618105531 0.14101219177
          0.18923556805 0.1792306453 0.1894710958 0.17527428269 0.18152470887 0.15865695477
          0.15623378754 0.16904769838 0.14823891222 0.16897051036 0.16269768775 0.16921773553
          0.1484400928 0.15652763844 0.16914534569 0.18193078041 0.23479922116 0.22440567613
          0.23505692184 0.22027929127 0.22671201825 0.20311689377 0.20054404438 0.21382342279
          0.19237372279 0.21377074718 0.20726589859 0.21393214166 0.19258213043 0.20086854696
          0.21385918558 0.22715303302 0.28266039491 0.27187716961 0.28292262554 0.26758447289
          0.27422368526 0.24985466897 0.24717435241 0.26091516018 0.23876520991 0.26087257266
          0.25411432981 0.2609795332 0.23896966875 0.24746327102 0.26086738706 0.27468550205
          0.33164688945 0.32047277689 0.3318785131 0.31604444981 0.32290774584 0.29775115848
          0.29497483373 0.30914187431 0.28632682562 0.30910813808 0.30212527514 0.30917692184
          0.28649973869 0.29522198439 0.30906155705 0.32332643867 0.38093298674 0.36936560273
          0.38113412261 0.3648057282 0.37190282345 0.34593653679 0.34307324886 0.35766020417
          0.33419245481 0.35764291883 0.35043090582 0.35766610503 0.33433806896 0.34328508377
          0.35757011175 0.37225663662 0.42978680134 0.41779863834 0.42997044325 0.41309133172
          0.42043492198 0.39359351993 0.39061361551 0.40567544103 0.38148379326 0.40568125248
          0.39823657274 0.40564677119 0.38163223863 0.39084845781 0.40560027957 0.42074197531
          0.47757926583 0.46512046456 0.47774684429 0.46025270224 0.46786749363 0.44002848864
          0.43690991402 0.45252460241 0.42750260234 0.45255839825 0.44484329224 0.4524525106
          0.42765918374 0.43717333674 0.45245742798 0.46813085675 0.52309519053 0.51025599241
          0.52326524258 0.5052486062 0.51306355 0.48444205523 0.48118975759 0.49727189541
          0.47155615687 0.49732813239 0.48940175772 0.49715200067 0.47173202038 0.48150712252
          0.49720308185 0.5133163929 0.56550872326 0.55234205723 0.56567662954 0.54719382524
          0.55518901348 0.52591490746 0.52256536484 0.5390368104 0.5127402544 0.53909420967
          0.5309664607 0.53888934851 0.51291143894 0.52286863327 0.53891253471 0.55545639992
          0.60390383005 0.59041237831 0.60405570269 0.58514994383 0.59334403276 0.56338959932
          0.55996394157 0.57678955793 0.54994052649 0.57686185837 0.56854492426 0.5766196847
          0.5500972867 0.56024521589 0.57665932178 0.59355843067 0.63734740019 0.62362784147
          0.63747543097 0.6182897687 0.62661701441 0.59616875648 0.59270983934 0.60980504751
          0.58250308037 0.60986232758 0.60140055418 0.60962688923 0.58263230324 0.5929376483
          0.60964566469 0.62681901455 0.66565322876 0.65184533596 0.6657757163 0.6464702487
          0.65487498045 0.62420392036 0.62077176571 0.63795113564 0.61044389009 0.63799130917
          0.62945687771 0.63781017065 0.61053663492 0.62092745304 0.63777965307 0.65507757664
          0.68984812498 0.67594069242 0.68996846676 0.67054110765 0.67903220654 0.64807200432
          0.64464271069 0.66194969416 0.63417428732 0.66197782755 0.65338021517 0.66185367107
          0.63427305222 0.6447994113 0.66182792187 0.67923009396 0.71128582954 0.69720846415
          0.71138238907 0.6917617321 0.70038801432 0.66897624731 0.66554951668 0.68306267262
          0.65487855673 0.6830791235 0.67435520887 0.68300902843 0.65494519472 0.6656602025
          0.68296921253 0.70056301355 0.73103910685 0.71674507856 0.73111402988 0.71122771502
          0.72002410889 0.68809998035 0.68467116356 0.70241516829 0.67378944159 0.70241111517
          0.69355946779 0.70238876343 0.67383635044 0.68473172188 0.70233696699 0.72015619278
          0.74981456995 0.73537999392 0.7498499155 0.72983533144 0.73873704672 0.70647919178
          0.70305299759 0.72092992067 0.69204372168 0.72092288733 0.71199089289 0.72092080116
          0.69206529856 0.70306998491 0.72087854147 0.73881006241 0.76775705814 0.75334811211
          0.76777201891 0.74783080816 0.75672358274 0.72451019287 0.72110444307 0.73893213272
          0.71010136604 0.73892241716 0.73001199961 0.73892307281 0.71011090279 0.721103549
          0.73890435696 0.75676423311 0.78553432226 0.77114754915 0.785543859 0.76563388109
          0.77451997995 0.7423619628 0.73896920681 0.75676107407 0.72796565294 0.75674706697
          0.74784815311 0.75676566362 0.72796577215 0.73895168304 0.75672960281 0.77455109358
          0.061265986413 0.058093752712 0.06147729978 0.056680370122 0.058800205588 0.050328630954
          0.0496375449 0.054492603987 0.046174667776 0.054356787354 0.052005715668 0.054816626012
          0.046344518661 0.049870003015 0.054690334946 0.059246014804 0.011646355502 0.011483634822
          0.010927977972 0.012429622933 0.011979236268 0.011108648032 0.011756102555 -0.0092578921467
          -0.0014519260731 0.0063374037854 0.011046645232 -0.0014817919582 -0.014033809304 -0.001503721578
          0.010954328813 -0.0015182853676 0.0061169792898 -0.0092143975198 -0.0015669257846 -0.014008367434
          -0.0060594095849 -0.0005561215221 0.0049297912046 0.0084376614541 -0.00058703508694 -0.0096004260704
          -0.00060135498643 0.0085327532142 -0.00062694289954 0.0050707268529 -0.0063594058156 -0.00065833178815
          -0.0097556486726 -0.0035277048592 3.4377881093e-05 0.0035753527191 0.0059895082377 1.4951460798e-05
          -0.0059471670538 7.079831903e-07 0.0062264706939 -2.135671275e-05 0.003937034402 -0.0040381606668
          -6.3131737988e-05 -0.0062436684966 -0.001907804166 0.00014066422591 0.002173795132 0.0037013862748
          0.00010986796406 -0.0034836800769 8.0226025602e-05 0.0040084728971 5.5396383686e-05 0.0026354144793
          -0.002583180787 1.8110371457e-05 -0.0038664108142 -0.00068497506436 1.0884372386e-05 0.00068131089211
          0.001536151045 -3.0645896913e-05 -0.0015881893924 -5.401081944e-05 0.0020364581142 -7.060252392e-05
          0.0014905681601 -0.0016603334807 -9.1370580776e-05 -0.0021524049807 2.5847911051e-13 3.5567319489e-12
          1.3817660124e-12 3.1249460485e-13 2.9326595406e-12 -5.8114537488e-13 3.1397806447e-13 1.3058353227e-13
          -1.0658368888e-14 0 0 0 -1.2914616479e-14
        </DataArray>
        <DataArray type="Float32" Name="uz" format="ascii" RangeMin="-0.10711209476" RangeMax="0.058143593371">
          0.010782827623 0.0089237410575 0.0095442943275 -0.0019457326271 -0.014831954613 -0.013523758389
          -0.01335473638 0.010143243708 0.0073230946437 0.0051626968198 -0.0021229502745 -0.012417386286
          -0.014502268285 -0.0097026061267 0.0116245877 0.0064181913622 -0.015162232332 -0.010125169531
          0.0061555602588 -0.0023659993894 -0.010927374475 0.0049983030185 -0.010091695003 -0.013491773047
          -0.0017792006256 0.010189218447 -0.0020302438643 -0.058353997767 -0.04544370994 -0.04692113027
          -0.060009781271 -0.047304887325 -0.050849858671 -0.054126262665 -0.053402677178 -0.064323365688
          -0.06297005713 -0.036807365716 -0.02362283878 -0.034739833325 -0.035928543657 -0.025111779571
          -0.036560222507 -0.029563268647 -0.027898142114 -0.043982990086 -0.043886728585 -0.048804569989
          -0.046234171838 -0.025456890464 -0.029303556308 -0.041051026434 -0.036719232798 -0.053630594164
          -0.048415213823 -0.062506511807 -0.058551006019 -0.034355975688 -0.039091296494 -0.055693928152
          -0.043070867658 -0.042073819786 -0.054475147277 -0.064895778894 -0.038316208869 -0.023301558569
          -0.03308109194 -0.032493773848 -0.044098537415 -0.051542565227 -0.022047735751 -0.046140916646
          -0.059002250433 -0.066158153117 -0.029219530523 -0.052350185812 -0.040509026498 -0.036780085415
          -0.054526396096 -0.064819186926 -0.040197331458 -0.023670079187 -0.03165981546 -0.036130078137
          -0.044250443578 -0.054332841188 -0.019048422575 -0.051690194756 -0.064410716295 -0.069423519075
          -0.024054720998 -0.048603635281 -0.037784844637 -0.03124332428 -0.054319955409 -0.064323574305
          -0.042178146541 -0.024322628975 -0.030283771455 -0.040033277124 -0.044320192188 -0.057029750198
          -0.01624009572 -0.057377487421 -0.06974580884 -0.072396300733 -0.018878910691 -0.044653423131
          -0.035017985851 -0.025647332892 -0.053945675492 -0.063541434705 -0.04420715943 -0.02518733032
          -0.029000865296 -0.044077385217 -0.044358689338 -0.059625279158 -0.013619056903 -0.063074395061
          -0.074928328395 -0.07510253787 -0.013801204972 -0.040715675801 -0.032396629453 -0.020332597196
          -0.053467713296 -0.062511973083 -0.046259988099 -0.026307864115 -0.027940943837 -0.04811507836
          -0.044422041625 -0.062035925686 -0.01142468024 -0.068504780531 -0.079699553549 -0.077400609851
          -0.009155318141 -0.036943305284 -0.02999589406 -0.015508402139 -0.052834566683 -0.061232596636
          -0.048169374466 -0.027631135657 -0.027108050883 -0.051926475018 -0.044439379126 -0.064071908593
          -0.0097588617355 -0.07336089015 -0.083746574819 -0.079107441008 -0.0051346737891 -0.03342397511
          -0.027823600918 -0.011199537665 -0.052133407444 -0.05984672159 -0.049911931157 -0.028993172571
          -0.026446994394 -0.055425025523 -0.044418103993 -0.065783143044 -0.0084571922198 -0.077646136284
          -0.087182275951 -0.080376558006 -0.0016654428327 -0.030152896419 -0.0258594919 -0.00727103604
          -0.05147273466 -0.058493133634 -0.051573954523 -0.030389890075 -0.025922827423 -0.058735758066
          -0.044438082725 -0.067361578345 -0.0074132601731 -0.081608891487 -0.090288668871 -0.08146636188
          0.0014135724632 -0.027111656964 -0.024000324309 -0.0035205131862 -0.050918906927 -0.057335045189
          -0.053150180727 -0.031629838049 -0.025386055931 -0.06184599176 -0.044477906078 -0.06892876327
          -0.0063195754774 -0.085428036749 -0.093377105892 -0.082652710378 0.0044191563502 -0.024306233972
          -0.022214867175 7.8045537521e-05 -0.050441332161 -0.056379422545 -0.054579112679 -0.032589100301