<VTKFile type="UnstructuredGrid" version="1.0" byte_order="LittleEndian" header_type="UInt64">
  <UnstructuredGrid>
    <Piece NumberOfPoints="791" NumberOfCells="973">
      <PointData>
        <DataArray type="Float32" Name="ux" format="ascii" RangeMin="-0.6026917696" RangeMax="0.38153958321">
          -0.37193465233 -0.4157602191 -0.3556829989 -0.3308173418 -0.40997418761 -0.38157108426
          -0.39981660247 -0.36308822036 -0.37378692627 -0.36807492375 -0.53328359127 -0.36703434587
          -0.34860232472 -0.30644825101 -0.45140811801 -0.38017576933 -0.44213211536 -0.50336849689
          -0.44584545493 -0.44144520164 -0.29162290692 -0.37922215462 -0.37355425954 -0.38824024796
          -0.49223831296 -0.43220761418 -0.53978914022 -0.24773088098 -0.32084226608 -0.32603442669
          -0.2073007375 -0.43474623561 -0.31099510193 -0.29609692097 -0.28599795699 -0.32801452279
          -0.24160310626 -0.35743612051 -0.18827274442 -0.23926216364 -0.48330104351 -0.27785149217
          -0.23608282208 -0.42649462819 -0.37383058667 -0.20687262714 -0.32141217589 -0.24764676392
          -0.36251908541 -0.28930306435 -0.35591000319 -0.15686780214 -0.31453225017 -0.35776150227
          -0.21271233261 -0.41949382424 -0.28926855326 -0.34104815125 -0.3214854002 -0.27735474706
          -0.23902970552 -0.11687028408 -0.23873123527 -0.30232194066 -0.35023644567 -0.27767217159
          -0.38557785749 -0.3043423295 -0.24765895307 -0.31031927466 -0.23523922265 -0.35462966561
          -0.46248692274 -0.36619377136 -0.3471916914 -0.3332927227 -0.30517706275 -0.28103360534
          -0.28882434964 -0.41725081205 -0.33435112238 -0.27139607072 -0.18431174755 -0.10926986486
          -0.19532284141 -0.23818358779 -0.25667276978 -0.18371903896 -0.22981905937 -0.25462445617
          -0.18008193374 -0.23223903775 -0.24071623385 -0.21298526227 -0.2408104986 -0.14821523428
          -0.28465369344 -0.22259812057 -0.23899647593 -0.17873410881 -0.25029790401 -0.22483496368
          -0.1418953687 -0.18921756744 -0.090436927974 -0.3153745234 -0.13579252362 -0.15646444261
          -0.20188005269 -0.13649633527 -0.13171714544 -0.15094676614 -0.25640302896 -0.089680440724
          -0.14568430185 -0.26019454002 -0.19513699412 -0.22612026334 -0.1293091327 -0.27307769656
          -0.25718179345 -0.30112105608 -0.084980979562 -0.21874588728 -0.11295486242 -0.13894510269
          -0.11118740588 -0.11192929 -0.25400033593 -0.24223478138 -0.12983183563 -0.12241830677
          -0.15961797535 -0.16094194353 -0.19045834243 -0.29578027129 -0.094005949795 -0.21066619456
          -0.073952928185 -0.080670833588 -0.19608332217 -0.1200157553 -0.16245055199 -0.21358269453
          -0.23604762554 -0.16688591242 -0.23186454177 -0.15439385176 -0.093572594225 -0.13507325947
          -0.22995464504 -0.17271506786 -0.13874301314 -0.21052901447 -0.15039089322 -0.095715038478
          -0.12320168316 -0.057106077671 -0.21293997765 -0.20647801459 -0.089764125645 -0.12888513505
          -0.16681726277 -0.0097505124286 -0.039108719677 -0.21479457617 -0.087730638683 -0.20426099002
          0.046016450971 -0.15797796845 -0.088244907558 -0.15435276926 -0.034447643906 -0.04582971707
          -0.064027532935 -0.086857311428 -0.0072442153469 -0.05413389951 -0.031009452417 -0.18927907944
          -0.018119292334 -0.17169784009 -0.12991277874 -0.15949341655 -0.10571157932 -0.03857903555
          -0.16134533286 -0.17711409926 -0.020746022463 -0.061629772186 -0.036236044019 0.028989898041
          -0.0012817877578 -0.13284312189 0.063658736646 -0.14001663029 -0.064848616719 -0.1347489506
          -0.04493714124 -0.050113506615 -0.071123547852 -0.033417075872 0.0012547145598 -0.017958823591
          -0.13459391892 -0.0091765737161 -0.052864462137 0.014770432375 0.051264584064 -0.012082880363
          -0.010199086741 0.0049656112678 -0.030822308734 -0.035888150334 0.039016980678 -0.023679049686
          -0.017239345238 -0.075663618743 -0.089869506657 0.074133679271 0.091013982892 -0.19876660407
          0.1381765157 -0.0023653486278 0.002697363263 -0.09255669266 -0.15157407522 -0.064339101315
          0.029554627836 0.0029937089421 -0.056993085891 -0.074968524277 0.031644601375 0.15432074666
          0.029970219359 0.057946503162 -0.010310806334 -0.028471663594 0.13603325188 0.079918466508
          -0.080059818923 -0.12831270695 0.099775791168 0.1099845618 0.022104129195 0.076545223594
          0.099988907576 0.13343720138 -0.0086907669902 0.06134172529 0.024178594351 0.14833682775
          0.12096139044 -0.13315436244 0.053117975593 -0.0077503407374 0.018594134599 -0.014927475713
          -0.020638836548 0.021609328687 0.015248371288 0.25130182505 0.15301084518 0.070827029645
          0.010229983367 -0.0049983239733 0.13117687404 0.10330861807 0.023803796619 0.13753733039
          0.067205920815 -0.038681361824 0.24824814498 0.12432967871 0.19705930352 0.11665987223
          0.11057692021 -0.087975271046 -0.063834227622 0.030265212059 0.20348116755 0.15416045487
          0.089079156518 0.10107813776 0.27831637859 0.067390330136 0.14401388168 0.19633693993
          0.14250484109 0.09182664752 0.18938730657 0.1855353266 0.21116276085 0.16271270812
          0.20212782919 0.23180712759 0.041315611452 0.18191307783 0.043149922043 0.11925337464
          0.12199322134 0.076211884618 0.10705014318 0.11720861495 0.20499888062 0.11681315303
          0.18654496968 0.20830528438 0.1059364751 0.22818034887 0.31731495261 0.041448716074
          0.21801199019 0.08692240715 0.054266642779 0.12861295044 0.25129714608 0.18838120997
          0.1348413229 0.23020255566 0.17822977901 0.19363158941 0.18464379013 0.28075683117
          0.28786590695 0.16184987128 0.17680332065 0.2048650533 0.2079372257 0.34025862813
          0.22662696242 0.10145766288 0.12005535513 0.18238474429 0.2825627625 0.34112033248
          0.24268488586 0.26104736328 0.25318992138 0.38153958321 0.28179693222 0.16820777953
          0.093263022602 0.24943503737 0.15241506696 0.26511561871 0.18476387858 -0.39356830716
          -0.38305443525 -0.39191940427 -0.46685731411 -0.44767543674 -0.38301384449 -0.30797886848
          -0.39579111338 -0.18510118127 -0.37231823802 -0.38911533356 -0.31251111627 -0.34907066822
          -0.45405495167 -0.46430179477 -0.3375120163 -0.44226485491 -0.42517134547 -0.38969841599
          -0.42758768797 -0.35285809636 -0.42512047291 -0.28349503875 -0.43665012717 -0.29389634728
          -0.3360273838 -0.37176850438 -0.21622358263 -0.26383131742 -0.31450223923 -0.32527607679
          -0.30893626809 -0.32810235023 -0.34919291735 -0.44370937347 -0.31787139177 -0.34159395099
          -0.40644034743 -0.28836685419 -0.22295941412 -0.35788047314 -0.36348351836 -0.16091807187
          -0.3604798913 -0.26440966129 -0.45921131968 -0.37327113748 -0.34049683809 -0.43753612041
          -0.26588693261 -0.30202674866 -0.30584332347 -0.33152329922 -0.2550611496 -0.23666955531
          -0.34875011444 -0.37885141373 -0.21535657346 -0.25377780199 -0.26643523574 -0.44070455432
          -0.34672221541 -0.43560692668 -0.24637538195 -0.38185441494 -0.2092705667 -0.2570745647
          -0.34220594168 -0.27174392343 -0.26368167996 -0.36644130945 -0.25492334366 -0.19660978019
          -0.16681990027 -0.25248226523 -0.29393172264 -0.095909751952 -0.18102690578 -0.26703351736
          -0.28932759166 -0.24256463349 -0.12618525326 -0.23001746833 -0.25826314092 -0.34056645632
          -0.32718756795 -0.19083680212 -0.21739135683 -0.24620491266 -0.17804227769 -0.18220745027
          -0.30049034953 -0.24437795579 -0.21218632162 -0.25299313664 -0.28694051504 -0.15157832205
          -0.2953582406 -0.3274834156 -0.15724651515 -0.15529581904 -0.16573055089 -0.21986971796
          -0.29798558354 -0.15504129231 -0.24047538638 -0.20016020536 -0.17359623313 -0.10192904621
          -0.21478134394 -0.15413615108 -0.27896428108 -0.13793945312 -0.17092850804 -0.26630315185
          -0.17642845213 -0.2457421571 -0.22196058929 -0.2450389117 -0.14311529696 -0.17875774205
          -0.095538631082 -0.18909886479 -0.30997666717 -0.22520034015 -0.21089234948 -0.081927202642
          -0.25921604037 -0.10210331529 -0.089121825993 -0.2126737833 -0.2417409718 -0.13709555566
          -0.17519828677 -0.26863738894 -0.073713280261 -0.1292270571 -0.13345463574 -0.22229212523
          -0.18115578592 -0.25977113843 -0.27529302239 -0.12902116776 -0.1609044224 -0.20641160011
          -0.075176522136 -0.22580642998 -0.2407272011 -0.066748008132 -0.031282134354 -0.060839854181
          -0.23865529895 -0.10906786472 -0.096500493586 -0.13313160837 -0.15637765825 -0.093769028783
          -0.063107714057 -0.14360365272 -0.076396524906 -0.26653289795 -0.18639978766 -0.14185261726
          -0.084170550108 -0.25238707662 -0.25456812978 -0.10256167501 -0.14146330953 -0.080603122711
          -0.044601641595 -0.14630977809 -0.059183619916 -0.072489328682 -0.096150614321 -0.058885350823
          -0.087293691933 -0.14846341312 -0.06703004986 -0.0800749138 0.079015001655 -0.03547924757
          -0.08471146971 -0.051577482373 0.057736992836 -0.038993917406 -0.1036484763 -0.024388277903
          -0.076981179416 -0.11098370701 -0.094961434603 -0.067687004805 -0.091821812093 -0.013419658877
          -0.037595614791 -0.14125362039 -0.01498832088 -0.11513599753 -0.014438477345 -0.032474286854
          -0.046678818762 -0.083862826228 -0.069058254361 -0.020661139861 -0.17819087207 -0.10497603565
          0.10102246702 -0.1228666082 -0.0014169714414 -0.024525787681 0.03470024839 -0.085505597293
          -0.10380615294 0.10059687495 0.014251380228 0.064720802009 -0.015992959961 0.11228927225
          0.13445110619 0.18588028848 0.0037891096435 0.12809596956 -0.012079088949 0.027195051312
          -0.025105884299 -0.049563940614 -0.099294759333 -0.10282509774 0.011633243412 0.080739311874
          -0.139885813 0.076488234103 0.039001695812 0.12613725662 -0.019672695547 0.046529717743
          0.077694952488 0.014764350839 -0.030181016773 -0.028860609978 0.0052001075819 0.058638490736
          0.14321786165 0.065399423242 -0.0050548808649 0.067509606481 0.093910306692 0.14283618331
          0.20880228281 0.10211694986 -0.057171899825 0.2296115607 0.073453515768 0.10880949348
          0.11088331044 0.010469388217 0.12052876502 0.080365434289 0.1596686095 0.035550814122
          0.017623638734 0.054712153971 0.082995049655 0.085749186575 0.080491825938 0.07119242847
          0.090156055987 0.058664888144 0.074328973889 0.19097651541 0.080711387098 0.1101257503
          0.02726242505 0.21239380538 0.071751885116 0.2513705194 0.1127833426 0.17395658791
          0.15669554472 0.12330836803 0.11182117462 0.098810181022 0.13608902693 0.10635399818
          0.13833539188 0.21688091755 0.18197640777 0.17421318591 0.064777828753 0.17576248944
          0.049250364304 0.11539314687 0.078664191067 0.10922176391 0.10160394758 0.18338124454
          0.14774879813 0.23493233323 0.071732863784 0.2568115294 0.0865361467 0.12854939699
          0.18237069249 0.15164649487 0.1195506379 0.1416118443 0.2311129719 0.27624905109
          0.063571445644 0.092958807945 0.12738551199 0.210755229 0.22466696799 0.18640427291
          0.08797506243 0.06798261404 0.32122030854 0.11620929092 0.29040014744 0.27402046323
          0.23640364408 0.24431635439 0.22678641975 0.13977403939 0.10438747704 0.2390011102
          0.24693785608 0.29064014554 0.20197750628 0.29365992546 0.22451363504 0.20863376558
          0.3220025301 0.29200088978 0.30284705758 0.2202771455 0.20131771266 0.2687805295
          0.14785216749 0.29515591264 0.28821748495 0.33621886373 0.24023267627 0.24961000681
          -0.34497117996 -0.32290685177 -0.47219216824 -0.28067260981 -0.34635618329 -0.44595834613
          -0.35538116097 -0.23623713851 -0.37564069033 -0.46150261164 -0.249049142 -0.24371807277
          -0.27515903115 -0.29815265536 -0.43879142404 -0.46725854278 -0.42086082697 -0.34516531229
          -0.37358155847 -0.33013105392 -0.41143247485 -0.34851962328 -0.42002728581 -0.37323102355
          -0.47165301442 -0.50801819563 -0.45775726438 -0.31527686119 -0.44109097123 -0.47388139367
          -0.43841776252 -0.45118939877 -0.46075335145 -0.4483333528 -0.40051534772 -0.41130584478
          -0.4911853075 -0.34739676118 -0.48968735337 -0.44349768758 -0.41785904765 -0.47190210223
          -0.4559071362 -0.35817152262 -0.43612083793 -0.42140358686 -0.35763311386 -0.48203760386
          -0.46808922291 -0.53498101234 -0.4164005816 -0.47199586034 -0.46725472808 -0.44197201729
          -0.39738282561 -0.44708698988 -0.52774620056 -0.46308195591 -0.34565144777 -0.37535947561
          -0.29008612037 -0.33411180973 -0.53391450644 -0.6026917696 -0.39626663923 -0.38162869215
          -0.49097234011 -0.56304419041 -0.51419389248 -0.46515014768 -0.50093740225 -0.43261048198
          -0.52194607258 -0.40154308081 -0.43846404552 -0.38542234898 -0.47458201647 -0.42179590464
          -0.51251643896 -0.42769125104 -0.4084610939 -0.36854127049 -0.36013039947 -0.46438902617
          -0.41439560056 -0.49974450469 -0.3414722383 -0.41207188368 0 0
          0 0 0 0 0 0
          0 0 0 0 0
        </DataArray>
        <DataArray type="Float32" Name="uy" format="ascii" RangeMin="-0.57891052961" RangeMax="0.37597751617">
          -0.48282247782 -0.22785183787 -0.35466474295 -0.45434311032 -0.3769108057 -0.34904801846
          -0.29465764761 -0.31223851442 -0.28784108162 -0.49979844689 -0.52720159292 -0.2826038301
          -0.42354428768 -0.3980652988 -0.325224787 -0.39209803939 -0.47420048714 -0.35753256083
          -0.54632431269 -0.32627406716 -0.41283160448 -0.40755164623 -0.31136891246 -0.36896571517
          -0.36295637488 -0.22717118263 -0.36554330587 -0.3959364295 -0.25986424088 -0.22620254755
          -0.34484112263 -0.37024572492 -0.34428417683 -0.5016900301 -0.29731321335 -0.25487950444
          -0.37653368711 -0.45137736201 -0.33966171741 -0.34544545412 -0.36016064882 -0.34298151731
          -0.37849318981 -0.21585543454 -0.45350426435 -0.36934107542 -0.32456052303 -0.37794819474
          -0.479208529 -0.34813565016 -0.45905789733 -0.25420609117 -0.44025209546 -0.38345843554
          -0.27829006314 -0.30298340321 -0.33141380548 -0.31918820739 -0.38819876313 -0.25436732173
          -0.21431036294 -0.203157112 -0.18871095777 -0.27937215567 -0.32381176949 -0.35439881682
          -0.27963548899 -0.3727875948 -0.27258720994 -0.3313267827 -0.27085259557 -0.31048595905
          -0.21692705154 -0.20999082923 -0.42403942347 -0.36965677142 -0.15217210352 -0.19470992684
          -0.26627245545 -0.20485951006 -0.27127063274 -0.33990013599 -0.20863503218 -0.12617070973
          -0.20799019933 -0.2843259275 -0.27759218216 -0.27566438913 -0.13533775508 -0.21790082753
          -0.22459241748 -0.29434415698 -0.33767908812 -0.13722273707 -0.22124443948 -0.17067416012
          -0.11105520278 -0.27292531729 -0.24152092636 -0.27791583538 -0.099550321698 -0.32941612601
          -0.26987719536 -0.28714510798 -0.23135520518 -0.26330956817 -0.16094404459 -0.28228735924
          -0.18599160016 -0.22598785162 -0.22612482309 -0.28099364042 -0.087497264147 -0.1746237427
          -0.20164188743 -0.13152654469 -0.34737208486 -0.29987925291 -0.097097940743 -0.15160630643
          -0.23754428327 -0.090863607824 -0.18828360736 -0.17753823102 -0.1612547487 -0.21956524253
          -0.21128509939 -0.17752070725 -0.12734512985 -0.21536418796 -0.27066969872 -0.094245456159
          -0.15006484091 -0.13458444178 -0.098148100078 0.031767174602 -0.16486683488 -0.13245142996
          -0.16134430468 -0.14183157682 -0.20769631863 -0.11383677274 -0.054126154631 0.0012297686189
          -0.25784981251 -0.12822517753 0.054118670523 -0.22690460086 -0.12520319223 -0.13702301681
          -0.034152764827 -0.15169669688 -0.19527219236 -0.11512896419 0.018832713366 -0.22863316536
          -0.028956212103 0.047772679478 -0.17706890404 -0.050364807248 -0.031182330102 -0.18195976317
          -0.11180451512 -0.1199067533 -0.12768305838 -0.13594959676 -0.078348971903 -0.20291930437
          -0.13687251508 -0.074868202209 -0.14276301861 -0.034699395299 -0.15277321637 -0.10764900595
          -0.030145414174 -0.0054251193069 -0.032622173429 -0.080880597234 -0.075515016913 -0.088675513864
          -0.010136319324 0.011949720792 -0.07949270308 0.0063315215521 -0.047907155007 -0.06015707925
          -0.076730921865 -0.019874958321 -0.0046088150702 0.058365087956 -0.054446894675 -0.068288333714
          -0.093034476042 0.0037265175488 -0.025149434805 -0.056511070579 -0.01126149483 -0.032148890197
          0.076435439289 -0.095838807523 -0.019526904449 0.0498704575 -0.18261909485 0.0027112935204
          0.037005029619 -0.069835148752 -0.047974832356 0.1055130735 0.10317794234 0.10203096271
          -0.024347594008 -0.10566378385 0.00073474529199 0.10672935098 -0.077167272568 -0.094999060035
          0.093140944839 0.051000777632 0.052465707064 -0.043836891651 -0.0070979609154 -0.028001451865
          -0.065416045487 0.022177482024 0.060870341957 0.016045995057 0.046168975532 0.13012930751
          0.080749213696 0.05886651203 0.018281251192 0.065012566745 0.092912182212 0.10355457664
          -0.027870710939 0.039848744869 0.14876867831 0.0049231029116 0.062690354884 0.12170661241
          0.1244706288 0.064654752612 0.13032591343 0.12418916076 -0.027436295524 0.12314468622
          0.010968589224 0.12204293162 0.1122970134 0.10884670168 0.12493303418 0.12350920588
          0.089037381113 0.15035291016 0.11839485914 -0.018835419789 0.21411088109 0.20636339486
          0.2075972259 0.088915765285 0.23588326573 0.12665097415 0.10230582207 0.092177636921
          0.11891461164 -0.011722975411 0.10939451307 0.19011127949 0.22161659598 0.20846758783
          0.17467817664 0.12019007653 0.1365353018 0.088878810406 0.14152784646 0.1901550144
          0.093328148127 0.12867866457 0.13021992147 0.12753972411 0.1340585202 0.21997271478
          0.16470509768 0.10439497232 0.18851661682 0.1564078629 0.14175307751 0.26182836294
          0.10535674542 0.20568048954 0.16321249306 0.11108020693 0.10463020951 0.17174310982
          0.17436145246 0.2392154485 0.18897375464 0.14781475067 0.18731838465 0.19905175269
          0.11014086753 0.066565968096 0.15106771886 0.17539705336 0.12782979012 0.18972682953
          0.24364416301 0.13659876585 0.21135608852 0.17029640079 0.15455801785 0.18493787944
          0.14695641398 0.22801928222 0.17331238091 0.18175193667 0.25212469697 0.21074189246
          0.21967968345 0.2259504199 0.31158748269 0.27068078518 0.31233680248 0.22418825328
          0.16706782579 0.14531081915 0.19803331792 0.32467398047 0.24839955568 0.20770989358
          0.30616262555 0.37502235174 0.17258362472 0.24105975032 0.20012319088 0.36718264222
          0.22876808047 0.25684377551 0.33111479878 0.24005629122 0.35098767281 0.27001136541
          0.32081139088 0.25975248218 0.37597751617 0.26775145531 0.25311377645 -0.3265863657
          -0.48745003343 -0.34234523773 -0.43668532372 -0.35837027431 -0.28917255998 -0.41088274121
          -0.32371014357 -0.39638623595 -0.28377461433 -0.40775662661 -0.36981636286 -0.39110454917
          -0.32013767958 -0.3289052546 -0.37312561274 -0.43836119771 -0.32989948988 -0.29741832614
          -0.44771966338 -0.36239212751 -0.36772426963 -0.40733328462 -0.37295621634 -0.31874161959
          -0.38241958618 -0.46307805181 -0.39226436615 -0.39076653123 -0.469943434 -0.34310930967
          -0.35341754556 -0.39669176936 -0.33049273491 -0.21703231335 -0.43215605617 -0.27203643322
          -0.32383280993 -0.32927963138 -0.36082962155 -0.41376307607 -0.43510442972 -0.31254506111
          -0.25888890028 -0.26360934973 -0.31253767014 -0.25284731388 -0.38412430882 -0.42027175426
          -0.38278397918 -0.28340646625 -0.30497163534 -0.27880057693 -0.33937433362 -0.36239874363
          -0.39168727398 -0.19301229715 -0.40569925308 -0.28565692902 -0.34937292337 -0.21320277452
          -0.2501219511 -0.3887398839 -0.21710509062 -0.31919297576 -0.30225408077 -0.40110823512
          -0.29862570763 -0.29490068555 -0.35523027182 -0.33607172966 -0.29204365611 -0.23137763143
          -0.30868545175 -0.15289697051 -0.31141078472 -0.33127778769 -0.33107209206 -0.20593641698
          -0.1676620692 -0.14605998993 -0.30529502034 -0.26214388013 -0.21465328336 -0.13428911567
          -0.3245691061 -0.30400794744 -0.14670270681 -0.30311727524 -0.19764518738 -0.21150931716
          -0.36095950007 -0.14935594797 -0.21067622304 -0.16401958466 -0.22338177264 -0.23076936603
          -0.21659973264 -0.23697321117 -0.344933182 -0.3645465374 -0.26142728329 -0.20944839716
          -0.29933550954 -0.19982758164 -0.29164466262 -0.24200305343 -0.23435948789 -0.30353173614
          -0.31327450275 -0.072296500206 -0.1361168474 -0.16508187354 -0.30356103182 -0.18848855793
          -0.18340002 -0.14799399674 -0.16594238579 -0.22148776054 -0.063517898321 -0.19482766092
          -0.27407363057 -0.22490935028 -0.15697075427 -0.18495334685 0.0077250781469 -0.17050713301
          -0.24536889791 -0.093289174139 -0.26089152694 -0.21563211083 -0.23899613321 -0.24619656801
          -0.23158062994 -0.10468333215 -0.25875249505 -0.030344484374 -0.13828893006 -0.16434276104
          -0.082072891295 -0.11939916015 -0.15795327723 -0.20485284925 -0.11490667611 -0.080078087747
          -0.088777765632 -0.047716915607 -0.25386947393 -0.17456844449 -0.11924183369 -0.13299696147
          -0.24977745116 -0.10053245723 -0.023929314688 -0.10927579552 -0.16382735968 -0.08919582516
          -0.27119341493 -0.02662535198 -0.26413536072 -0.12175083905 -0.18891768157 -0.067358210683
          -0.10714457929 -0.12520337105 -0.20833674073 -0.21628180146 -0.040691781789 -0.036067400128
          -0.034322943538 -0.089870795608 -0.095474950969 -0.047049835324 -0.16565820575 -0.18093171716
          -0.10768490285 -0.045432262123 -0.15167370439 -0.10362886637 -0.050082221627 0.010597595014
          -0.020988181233 -0.091024070978 -0.060634311289 -0.056014537811 -0.14917291701 -0.098801799119
          0.023958070204 -0.080075390637 0.052269924432 -0.011622237042 -0.17080704868 -0.15685640275
          -0.14175219834 -0.14750121534 -0.10867656767 -0.065920174122 -0.030722474679 -0.046139478683
          -0.090420089662 -0.048208072782 -0.10095638037 -0.076562672853 -0.017952084541 0.053694777191
          0.036826875061 -0.13048450649 -0.082034036517 0.018883701414 -0.025534713641 -0.033337704837
          0.018772196025 -0.027300329879 -0.09750854969 0.0043251388706 -0.032155107707 -0.042246695608
          0.097396373749 -0.023400112987 -0.034111071378 0.015506977215 -0.11164720356 -0.062269605696
          -0.019995702431 -0.022660782561 0.039627917111 -0.12317705899 0.034146480262 -0.056170217693
          -0.099795944989 0.082619450986 -0.04383065924 -0.13864864409 -0.021791512147 -0.025974599645
          0.075613796711 0.014842651784 0.081124760211 -0.064178362489 -0.096747890115 -0.0014857928036
          0.023412873968 0.022616142407 -0.0033211477567 -0.017735630274 -0.0018302625977 0.075685486197
          0.089466117322 0.037406720221 0.049676723778 0.053939569741 -0.091223269701 0.01589714922
          0.048699237406 -0.039054818451 -0.0092646088451 0.021147361025 0.086394935846 0.2134539634
          0.14898103476 0.11104268581 0.029879482463 0.06072601676 0.063679128885 0.12416531146
          0.0081733204424 0.0767628178 -0.011806704104 0.24435396492 0.027227669954 0.14242912829
          0.069906190038 0.10031472147 0.10176746547 0.17080461979 0.026250204071 0.038414191455
          0.088883347809 0.057356905192 0.15847624838 0.15078054368 0.21364423633 0.1823644191
          0.12992030382 0.20488880575 0.22476808727 0.13234241307 0.14694234729 0.14204767346
          0.12347913533 0.26236373186 0.2170189321 0.19320861995 0.17671869695 0.09519867599
          0.1133030653 0.20293185115 0.14871001244 0.15798003972 0.15686196089 0.14455245435
          0.12618750334 0.21854873002 0.22348047793 0.13377392292 0.10404573381 0.073765397072
          0.094514526427 0.020371269435 0.1704826206 0.10961383581 0.15189708769 0.24212783575
          0.19891184568 0.21578224003 0.27538719773 0.20154175162 0.21335068345 0.21548709273
          0.073991477489 0.10812577605 0.10146849602 0.18532913923 0.15216226876 0.11591624469
          0.22291684151 0.14693668485 0.2399584949 0.19653609395 0.25612798333 0.11524417251
          0.22831095755 0.12746740878 0.17920619249 0.27321237326 0.12348484993 0.35800233483
          0.18613597751 0.14806748927 0.17818148434 0.15880179405 0.16235353053 0.31025579572
          -0.27981257439 -0.41660049558 -0.38917788863 -0.41995602846 -0.31973981857 -0.38083979487
          -0.39207533002 -0.51638942957 -0.19350938499 -0.38524359465 -0.36757129431 -0.32859539986
          -0.27185842395 -0.39858236909 -0.52191787958 -0.31782305241 -0.33294782043 -0.3097602725
          -0.41591671109 -0.39505034685 -0.39457938075 -0.35775116086 -0.39812627435 -0.42673289776
          -0.48304593563 -0.46694076061 -0.4597427249 -0.36373221874 -0.51101124287 -0.4407453239
          -0.41108569503 -0.26627126336 -0.51568043232 -0.44371145964 -0.36129316688 -0.4975451827
          -0.46733868122 -0.44061928988 -0.50874739885 -0.41082549095 -0.42955181003 -0.38812944293
          -0.50718009472 -0.33033180237 -0.40645247698 -0.51708984375 -0.39768964052 -0.3967859149
          -0.46322783828 -0.47197347879 -0.31205609441 -0.50299751759 -0.40045008063 -0.51547807455
          -0.44990712404 -0.48542734981 -0.39894381166 -0.48006662726 -0.3613666296 -0.39806452394
          -0.43229135871 -0.54965859652 -0.45576918125 -0.49051055312 -0.46208098531 -0.4104270637
          -0.54692023993 -0.37506717443 -0.44170692563 -0.57891052961 -0.46052795649 -0.47726777196
          -0.34320601821 -0.41087388992 -0.35844928026 -0.37895587087 -0.45565727353 -0.34360656142
          -0.47842639685 -0.53222769499 -0.49587398767 -0.51403796673 -0.33156967163 -0.43554899096
          -0.41006043553 -0.38089674711 -0.41165161133 -0.33504951 0 0
          0 0 0 0 0 0
          0 0 0 0 0
        </DataArray>
        <DataArray type="Float32" Name="uz" format="ascii" RangeMin="-0.70066291094" RangeMax="0">
          -0.4493406415 -0.42322650552 -0.47075548768 -0.56632906199 -0.38838517666 -0.46938070655
          -0.39002436399 -0.36000964046 -0.36150407791 -0.35908731818 -0.48351681232 -0.41570663452
          -0.40896752477 -0.48601824045 -0.39086273313 -0.46984130144 -0.58558624983 -0.51047426462
          -0.45164895058 -0.32052344084 -0.42740899324 -0.50855845213 -0.47073552012 -0.4137802124
          -0.58672660589 -0.40272903442 -0.54946249723 -0.40742123127 -0.58351057768 -0.63947427273
          -0.55752497911 -0.46585026383 -0.4454420805 -0.46087676287 -0.51942187548 -0.55228608847
          -0.48644825816 -0.48372831941 -0.48532468081 -0.64275532961 -0.51626127958 -0.45124968886
          -0.561401546 -0.56328332424 -0.41973525286 -0.4241592586 -0.40864029527 -0.49607381225
          -0.48413097858 -0.49385401607 -0.61765903234 -0.41358351707 -0.4521009624 -0.49260821939
          -0.46977993846 -0.56170469522 -0.48485171795 -0.3583830893 -0.49951460958 -0.53730362654
          -0.5060351491 -0.53457611799 -0.46414864063 -0.628662467 -0.55513578653 -0.56191527843
          -0.44802823663 -0.48919868469 -0.49657905102 -0.45441955328 -0.63390463591 -0.42025232315
          -0.43557572365 -0.50372833014 -0.42226597667 -0.54194974899 -0.47918453813 -0.51633912325
          -0.42396205664 -0.45392599702 -0.43205651641 -0.46399503946 -0.51267021894 -0.51510483027
          -0.41346260905 -0.6242415309 -0.49223348498 -0.53799921274 -0.39096927643 -0.49810308218
          -0.57985717058 -0.40032407641 -0.4857442975 -0.50649183989 -0.57216614485 -0.47946965694
          -0.50358146429 -0.54204601049 -0.56403160095 -0.45002123713 -0.5085042119 -0.5926002264
          -0.46536436677 -0.42149889469 -0.50034558773 -0.49671915174 -0.59144830704 -0.41310167313
          -0.57845926285 -0.45212745667 -0.42746073008 -0.57397150993 -0.34566500783 -0.47507697344
          -0.42660054564 -0.34926953912 -0.40719687939 -0.46876943111 -0.42259296775 -0.50102746487
          -0.35935410857 -0.42283132672 -0.60504031181 -0.70066291094 -0.62228929996 -0.37558335066
          -0.46608957648 -0.3923265934 -0.49117946625 -0.34338778257 -0.43819531798 -0.45797726512
          -0.3086476624 -0.4341648221 -0.54464262724 -0.57963263988 -0.58976894617 -0.45976254344
          -0.53241741657 -0.55332440138 -0.51363408566 -0.56775665283 -0.35422122478 -0.35937306285
          -0.50006896257 -0.46567103267 -0.50929415226 -0.51119244099 -0.53335946798 -0.59146362543
          -0.4988052845 -0.58078932762 -0.42961353064 -0.45615893602 -0.40658742189 -0.58036017418
          -0.51449608803 -0.53959459066 -0.45716354251 -0.37045371532 -0.48186168075 -0.39767360687
          -0.56214523315 -0.38644576073 -0.56907123327 -0.54576659203 -0.45238694549 -0.52677166462
          -0.5707270503 -0.37504586577 -0.51104348898 -0.48877099156 -0.51353025436 -0.50236403942
          -0.54279625416 -0.6201210022 -0.46372485161 -0.48842132092 -0.48848006129 -0.51379221678
          -0.52910035849 -0.62277662754 -0.55666035414 -0.36400029063 -0.52418059111 -0.56554782391
          -0.55714768171 -0.37167280912 -0.50515824556 -0.4472078979 -0.53134721518 -0.4967417419
          -0.53631865978 -0.58772569895 -0.44936257601 -0.35599252582 -0.52572005987 -0.48323234916
          -0.52549260855 -0.57872676849 -0.43348732591 -0.44312265515 -0.48407956958 -0.4232403338
          -0.57950085402 -0.55941462517 -0.4964286685 -0.60047507286 -0.50059396029 -0.55505651236
          -0.492295295 -0.59009313583 -0.37191402912 -0.38246026635 -0.63529741764 -0.46074709296