<VTKFile type="UnstructuredGrid" version="1.0" byte_order="LittleEndian" header_type="UInt64">
  <UnstructuredGrid>
    <Piece NumberOfPoints="791" NumberOfCells="973">
      <PointData>
        <DataArray type="Float32" Name="ux" format="ascii" RangeMin="-1.3270623684" RangeMax="0.91166347265">
          -0.07311104238 -0.10229159892 -0.033363994211 -0.05959007889 -0.049607113004 -0.02968933247
          -0.092269994318 -0.12496282905 -0.19933317602 -0.16009026766 -0.11938694119 -0.16769452393
          -0.10323660076 -0.15344564617 0.017365762964 -0.019643865526 0.021315107122 -0.0086648939177
          -0.13413250446 -0.18300373852 -0.12872466445 -0.19982486963 -0.18222230673 0.034839808941
          0.015638154 0.05830186978 -0.089149683714 -0.2666515708 -0.23839111626 -0.22664935887
          -0.14629711211 -0.14429605007 -0.13707731664 -0.26984468102 -0.14423963428 -0.29785549641
          -0.14931485057 -0.24231135845 -0.21244029701 -0.22285576165 -0.1508551985 -0.15077915788
          -0.14530865848 -0.23784051836 -0.15760098398 -0.24669498205 -0.14677368104 -0.26799216866
          -0.14568141103 -0.19756653905 -0.13952870667 -0.25761401653 -0.14697982371 -0.28179726005
          -0.14235138893 -0.29973092675 -0.14265173674 -0.19952490926 -0.13536201417 -0.40883401036
          -0.365041852 -0.3477819562 -0.41795527935 -0.46383789182 -0.36481675506 -0.31879225373
          -0.33919644356 -0.35017952323 -0.3789293766 -0.41127878428 -0.30313026905 -0.39498922229
          -0.44489651918 -0.47563445568 -0.31218418479 -0.43757995963 -0.39448064566 -0.37947383523
          -0.45154130459 -0.49060150981 -0.39686024189 -0.33948412538 -0.36809244752 -0.38077902794
          -0.41135850549 -0.44518825412 -0.32599380612 -0.42855492234 -0.4801581502 -0.50854355097
          -0.33586931229 -0.31188726425 -0.26791387796 -0.25449880958 -0.31978064775 -0.36114901304
          -0.26314437389 -0.21287509799 -0.23737321794 -0.24671122432 -0.27909442782 -0.31422486901
          -0.19900637865 -0.29750651121 -0.34987470508 -0.37577813864 -0.21269483864 -0.1447532028
          -0.086658239365 -0.070609055459 -0.14936374128 -0.19673599303 -0.078914105892 -0.007419698406
          -0.041875436902 -0.061923868954 -0.10000199825 -0.14398020506 0.014654130675 -0.13019217551
          -0.18722592294 -0.21250349283 -0.0046107866801 0.08710116148 0.13599680364 0.14901608229
          0.078967109323 0.039092466235 0.13556838036 0.2031917274 0.17236664891 0.14997425675
          0.11998642236 0.078924566507 0.2248082459 0.085537277162 0.037757683545 0.019116904587
          0.20094066858 0.24406352639 0.27462387085 0.28443068266 0.23433168232 0.20728559792
          0.26788848639 0.3244176507 0.29844504595 0.27709683776 0.26136720181 0.22981439531
          0.34325537086 0.22915840149 0.19595496356 0.18847113848 0.32397317886 0.29546159506
          0.33808118105 0.35436582565 0.28314456344 0.24557806551 0.33035293221 0.40464711189
          0.37146055698 0.3462023139 0.32181540132 0.27639755607 0.42454946041 0.27891150117
          0.23372776806 0.22152790427 0.40175551176 0.25115215778 0.32385399938 0.34257739782
          0.24054834247 0.17759646475 0.32625341415 0.42518699169 0.37720829248 0.34831038117
          0.30482673645 0.24156238139 0.45169192553 0.25595754385 0.18250486255 0.15244935453
          0.42020905018 0.17677539587 0.25892838836 0.28113612533 0.16432973742 0.094797089696
          0.26191297174 0.3744289875 0.32015451789 0.28935772181 0.23350037634 0.16712889075
          0.40749642253 0.18396426737 0.10060539842 0.068390138447 0.37012338638 0.0082049462944
          0.10667967796 0.13999922574 -0.010833317414 -0.098852463067 0.11015255749 0.24940316379
          0.18109570444 0.1451150924 0.072747431695 -0.011553099379 0.28501680493 0.0098422691226
          -0.099710740149 -0.13826423883 0.24284432828 -0.168600142 -0.054587926716 -0.016210401431
          -0.1938456893 -0.29592263699 -0.047574743629 0.12499526888 0.036499049515 0.00010804008343
          -0.089662738144 -0.19205626845 0.16987502575 -0.16282312572 -0.29909092188 -0.34885674715
          0.11216939241 -0.26769930124 -0.14746086299 -0.1026262939 -0.29787349701 -0.40684488416
          -0.15299780667 0.026465477422 -0.056758977473 -0.11302214116 -0.19112293422 -0.30130195618
          0.080774053931 -0.27591601014 -0.40894460678 -0.46178841591 0.030567511916 -0.31858187914
          -0.2073828876 -0.16470628977 -0.34146228433 -0.44034397602 -0.21319293976 -0.066888734698
          -0.13004662097 -0.17863693833 -0.24509771168 -0.34025546908 -0.013533954509 -0.31455522776
          -0.43064495921 -0.48100653291 -0.050107445568 -0.31414881349 -0.24344226718 -0.21876706183
          -0.32718375325 -0.39451396465 -0.24545092881 -0.1628934741 -0.19790385664 -0.22402821481
          -0.26843473315 -0.3196207881 -0.12621596456 -0.29852196574 -0.37375313044 -0.41559714079
          -0.14627860487 -0.26233041286 -0.21411082149 -0.18712085485 -0.278319031 -0.32581552863
          -0.21976132691 -0.15531627834 -0.18162173033 -0.20225968957 -0.23487663269 -0.27873784304
          -0.13232849538 -0.26120710373 -0.31905436516 -0.34399232268 -0.14209610224 -0.090940020978
          -0.051230903715 -0.032483786345 -0.105497621 -0.14127498865 -0.053448103368 0.0042284056544
          -0.021572798491 -0.037078477442 -0.067882359028 -0.10277151316 0.024204654619 -0.090986199677
          -0.14085043967 -0.16148141026 0.010359466076 0.17814894021 0.22427207232 0.24300128222
          0.17037180066 0.13120308518 0.22674460709 0.28968864679 0.25923165679 0.24494665861
          0.2095515132 0.17423841357 0.31114533544 0.18808750808 0.13858349621 0.11369100213
          0.29280173779 0.49469780922 0.53818106651 0.55641883612 0.48333379626 0.44665083289
          0.53390222788 0.59863185883 0.57099974155 0.55010133982 0.52118492126 0.48219430447
          0.61859965324 0.48926833272 0.44623711705 0.42920950055 0.60273194313 -0.036487095058
          -0.097714692354 -0.10693335533 -0.040391288698 0.0075354427099 -0.11455125362 -0.18116252124
          -0.14300903678 -0.14053806663 -0.090520106256 -0.058178089559 -0.19642584026 -0.082135409117
          -0.025053627789 0.0081692198291 -0.17101420462 -0.090064547956 -0.16106310487 -0.10381510854
          -0.073342375457 -0.02870949544 -0.038746275008 0.012681677006 0.282918185 0.17057879269
          0.12867167592 0.44977110624 0.3752014637 0.34386187792 0.30500587821 0.47046563029
          0.40732181072 0.53645151854 0.17141532898 0.022806720808 0.088158786297 0.38244748116
          0.28819990158 0.3271330893 0.1410626024 0.35884588957 0.20684103668 0.40352720022
          0.30011081696 0.4691824317 -0.029839061201 0.25120407343 0.27830809355 0.45052820444
          0.39673772454 0.53363585472 0.44655421376 0.56831634045 0.0070737539791 0.26904392242
          0.53635162115 0.52260124683 0.51075476408 0.54217255116 0.55664145947 0.52526420355
          0.51440858841 0.51607775688 0.52040696144 0.52866727114 0.53913503885 0.50723320246
          0.53142589331 0.54837012291 0.56057465076 0.50279211998 0.55334675312 0.57231020927
          0.57251912355 0.54728621244 0.536270082 0.57199662924 0.61721473932 0.59429961443
          0.58267837763 0.5641425848 0.54032886028 0.62310445309 0.53711342812 0.5137167573
          0.51967906952 0.60302710533 0.44616189599 0.49642020464 0.50837421417 0.4378221035
          0.39873641729 0.49501535296 0.57079994678 0.53384584188 0.50751894712 0.47806221247
          0.43438863754 0.59196817875 0.43638256192 0.39010545611 0.37411800027 0.56215643883
          0.21764819324 0.2886492908 0.30661985278 0.20836102962 0.1477534622 0.2908129096
          0.39243260026 0.34160405397 0.31409573555 0.26628926396 0.21041062474 0.42344641685
          0.22348608077 0.15114502609 0.12001857907 0.38998180628 -0.056512765586 0.039169892669
          0.071133621037 -0.076023779809 -0.16192410886 0.038572732359 0.17137609422 0.10851664096
          0.07138787955 0.0075877313502 -0.074482537806 0.21044786274 -0.052446555346 -0.15459243953
          -0.19717147946 0.17185224593 -0.32903292775 -0.23411336541 -0.20549923182 -0.34373837709
          -0.42468225956 -0.23694710433 -0.1216500029 -0.17439836264 -0.20971089602 -0.26479202509
          -0.34006348252 -0.083717256784 -0.31812080741 -0.40874287486 -0.4521432519 -0.11313402653
          -0.57412165403 -0.49170970917 -0.46261155605 -0.58890622854 -0.66150438786 -0.48864510655
          -0.39248865843 -0.43772038817 -0.46237882972 -0.51637256145 -0.57942968607 -0.36108753085
          -0.55281329155 -0.63817638159 -0.6821809411 -0.38119333982 -0.68732047081 -0.63518422842
          -0.61120063066 -0.70159900188 -0.75362616777 -0.63316601515 -0.56835669279 -0.60022556782
          -0.6132389307 -0.65632247925 -0.69583469629 -0.54541581869 -0.67266523838 -0.73407846689
          -0.77098625898 -0.55884569883 -0.56444823742 -0.54328775406 -0.52896147966 -0.57166099548
          -0.59738230705 -0.53879702091 -0.51857161522 -0.52874612808 -0.52717703581 -0.54779428244
          -0.56507921219 -0.51165431738 -0.55075156689 -0.58573186398 -0.60496735573 -0.51390397549
          -0.28434064984 -0.28637421131 -0.2879794538 -0.28410542011 -0.2827411294 -0.28337368369
          -0.2912261188 -0.28836962581 -0.28217178583 -0.28769597411 -0.28048598766 -0.29338625073
          -0.27554157376 -0.27612265944 -0.27992275357 -0.29195386171 0.050615269691 0.074546121061
          0.079640269279 0.047210611403 0.030709557235 0.077182300389 0.12410858274 0.098666481674
          0.091778889298 0.067332603037 0.047010682523 0.13144733012 0.051406417042 0.02532739006
          0.023596389219 0.11050596088 0.3213994801 0.42382416129 0.45136031508 0.3062248826
          0.22443787754 0.4291626811 0.57586157322 0.50279396772 0.46214488149 0.39148068428
          0.30610820651 0.61426895857 0.3197568655 0.21641761065 0.18389566243 0.56269991398
          0.4823371768 0.62179762125 0.65973454714 0.45702284575 0.34233275056 0.63053494692
          0.84191310406 0.73665308952 0.67857348919 0.58026766777 0.45518809557 0.89704614878
          0.47857871652 0.32945284247 0.28354424238 0.82292574644 0.48225641251 0.63264399767
          0.67534404993 0.45704635978 0.33142364025 0.6348605752 0.85332161188 0.74806201458
          0.68316715956 0.58674734831 0.45357555151 0.91166347265 0.47536489367 0.32256254554
          0.2707247138 0.83898991346 0.34129571915 0.47330197692 0.50960665941 0.31538286805
          0.20722810924 0.46532344818 0.6628973484 0.57118135691 0.50402474403 0.42522659898
          0.30531650782 0.71930658817 0.31698215008 0.18321330845 0.14355331659 0.65588903427
          0.008601853624 0.142965734 0.18368431926 -0.014602355659 -0.12968079746 0.14018173516
          0.3351803124 0.24558377266 0.17698185146 0.095230259001 -0.023100955412 0.39678174257
          -0.0090215690434 -0.14756257832 -0.18864411116 0.33193787932 -0.50229376554 -0.35376942158
          -0.30743342638 -0.53288310766 -0.66016173363 -0.35874322057 -0.14389336109 -0.24372065067
          -0.31160539389 -0.40446254611 -0.54000544548 -0.083572275937 -0.51808142662 -0.67447084188
          -0.72685259581 -0.14491702616 -1.1072990894 -0.96050101519 -0.91508579254 -1.1354578733
          -1.2626070976 -0.95516240597 -0.74729627371 -0.84678530693 -0.90785485506 -1.0085470676
          -1.1322299242 -0.68622553349 -1.1042122841 -1.2631756067 -1.3270623684 -0.75078678131
          0.018246995285 -0.044190995395 -0.099788218737 0.068587824702 0.12798649073 -0.0030210285913
          -0.11840810627 -0.088293381035 -0.0049471929669 0.0046135731973 0.093795180321 -0.18714039028
          0.11184439808 0.18840287626 0.19381129742 -0.17820376158 -0.075260639191 -0.15887948871
          -0.078112371266 -0.072401553392 -0.0084675848484 0.0086970711127 0.064682163298 -0.046126797795
          -0.028125174344 -0.035561125726 -0.076666645706 -0.074859686196 -0.08421973139 -0.10826464742
          -0.1363260597 -0.13865356147 -0.17625445127 -0.16142114997 -0.17930845916 -0.13063584268
          0.00028224801645 0.030165448785 -0.0022685599979 -0.094015352428 -0.074426919222 -0.081626176834
          -0.14019054174 -0.20030082762 -0.20458605886 -0.27964094281 -0.26873838902 -0.3046695292
          -0.18538862467 0.034126605839 0.079680882394 0.029891690239 -0.095042869449 -0.074488736689
          -0.08600127697 -0.17132760584 -0.24887229502 -0.26107469201 -0.36313456297 -0.35184645653
          -0.39996027946 -0.23382583261 0.01874380745 0.063113160431 0.022421738133 -0.090622931719
          -0.072635419667 -0.082303702831 -0.15713889897 -0.22927884758 -0.23707000911 -0.32978019118
          -0.30950820446 -0.36012613773 -0.20559069514 0.04310093075 0.050502482802 0.022803185508
          -0.048413708806 -0.024997230619 -0.026896677911 -0.079657875001 -0.12758870423 -0.13234867156
          -0.18119080365 -0.1887755543 -0.20806001127 -0.11962045729 -2.1382824678e-10 5.1143858038e-09
          -8.2062845408e-10 9.0092343308e-12 3.0139984258e-11 3.7065111397e-11 -4.7134764841e-11 1.7881648853e-12
          2.1477656079e-13 0 0 0 1.3978180592e-12
        </DataArray>
        <DataArray type="Float32" Name="uy" format="ascii" RangeMin="-1.0150595903" RangeMax="1.487942934">
          0.51292747259 0.43756195903 0.40940856934 0.60119652748 0.67308276892 0.57444435358
          0.60463583469 0.51303964853 0.44616249204 0.52432990074 0.59573805332 0.61667007208
          0.67004096508 0.62439626455 0.44585904479 0.52608048916 0.62353539467 0.63133561611
          0.37115466595 0.54217648506 0.521879673 0.37042465806 0.52130752802 0.51642596722
          0.54819351435 0.35879322886 0.60817426443 -0.27012234926 -0.24356153607 -0.26872646809
          0.095647640526 0.10382523388 0.093208551407 -0.23131497204 0.11091401428 -0.24625770748
          0.10622422397 -0.19287365675 -0.18421705067 -0.21658360958 0.11416804045 0.119987607
          0.11226440966 -0.170762375 0.11454535276 -0.21715766191 0.11291760951 -0.20072986186
          0.11534424871 -0.21281889081 0.11554882675 -0.17255851626 0.10910562426 -0.18212689459
          0.11193460971 -0.21236030757 0.11417017132 -0.24699376523 0.10262064636 -0.46721541882
          -0.42035216093 -0.46445629001 -0.4020139277 -0.42650896311 -0.33849641681 -0.3368062675
          -0.38158866763 -0.30464428663 -0.37598344684 -0.34538424015 -0.38253310323 -0.29339534044
          -0.31267881393 -0.36297687888 -0.43102586269 -0.51945823431 -0.47539019585 -0.5185392499
          -0.45150581002 -0.48258319497 -0.38733068109 -0.3866815567 -0.43632045388 -0.34868720174
          -0.4299402833 -0.39380526543 -0.43897518516 -0.33620306849 -0.35839360952 -0.41519650817
          -0.48610797524 -0.51140069962 -0.46611383557 -0.50826662779 -0.45171412826 -0.47617039084
          -0.38466453552 -0.37652614713 -0.42659312487 -0.34414252639 -0.42592126131 -0.39466884732
          -0.42362987995 -0.33440452814 -0.36120304465 -0.41668048501 -0.47446802258 -0.44167965651
          -0.38752242923 -0.44280469418 -0.36888989806 -0.39758837223 -0.28141820431 -0.26492959261
          -0.33142572641 -0.23066599667 -0.33369666338 -0.30415514112 -0.32342335582 -0.22884428501
          -0.26709201932 -0.33135434985 -0.39370781183 -0.18191918731 -0.13648931682 -0.18493969738
          -0.11636716127 -0.14429841936 -0.039161603898 -0.024955919012 -0.089340254664 0.011689045466
          -0.088148638606 -0.058174733073 -0.088329441845 0.0097927395254 -0.028781197965 -0.08513148129
          -0.14885012805 0.12302403897 0.15707346797 0.1188673377 0.17417484522 0.14992436767
          0.23980112374 0.24958387017 0.1952367872 0.27889105678 0.19944781065 0.22175444663
          0.1952111572 0.27347749472 0.23982295394 0.19498616457 0.14304856956 0.25501537323
          0.30061042309 0.25083556771 0.32182872295 0.29238662124 0.3994538188 0.4088203311
          0.3473431766 0.44985729456 0.35046473145 0.38135048747 0.34137165546 0.44687855244
          0.40579602122 0.34950524569 0.28294834495 0.24254783988 0.31323689222 0.24098517001
          0.33954188228 0.29406899214 0.4565012455 0.47159776092 0.38549649715 0.52730280161
          0.3850337863 0.42484605312 0.38036572933 0.52219808102 0.46824777126 0.3776769042
          0.29400923848 0.18318623304 0.25816816092 0.17423017323 0.29343467951 0.24976657331
          0.41451349854 0.43026766181 0.33321732283 0.49131771922 0.34034883976 0.38635209203
          0.32962465286 0.48976781964 0.4309874773 0.34223476052 0.22989504039 0.088699050248
          0.18354986608 0.084528580308 0.22591745853 0.16576308012 0.38084489107 0.39835336804
          0.27878683805 0.47971954942 0.28396970034 0.34488090873 0.27371159196 0.48314839602
          0.40676960349 0.28404840827 0.15318195522 -0.088061675429 0.030499065295 -0.088680744171
          0.081352993846 0.00076543429168 0.28926986456 0.31591981649 0.1583378315 0.41802030802
          0.15830042958 0.23936958611 0.15096193552 0.41794201732 0.31857645512 0.15715160966
          -5.0196093071e-05 -0.36044365168 -0.23079928756 -0.36068272591 -0.17873778939 -0.25965774059
          0.035352569073 0.065023586154 -0.099197015166 0.16589003801 -0.097060285509 -0.013690428808
          -0.099171377718 0.16614696383 0.070695057511 -0.093216814101 -0.2628800869 -0.57464623451
          -0.46154657006 -0.5724992156 -0.41833555698 -0.48548606038 -0.23997531831 -0.21009907126
          -0.3453502655 -0.13295309246 -0.35095089674 -0.28204408288 -0.34277272224 -0.13183671236
          -0.21124821901 -0.34580072761 -0.48063004017 -0.56986325979 -0.49031251669 -0.56826996803
          -0.46224790812 -0.50745981932 -0.34407818317 -0.32643356919 -0.41315618157 -0.28305578232
          -0.41532996297 -0.36706990004 -0.40814483166 -0.27818527818 -0.31968325377 -0.40723305941
          -0.50526338816 -0.39528989792 -0.34179893136 -0.39115837216 -0.32267460227 -0.35265734792
          -0.24771009386 -0.23410277069 -0.29136773944 -0.20081494749 -0.29012769461 -0.26173961163
          -0.28898522258 -0.19849598408 -0.22868593037 -0.28747111559 -0.3452154994 -0.17365932465
          -0.12517186999 -0.16600202024 -0.11287323385 -0.14208479226 -0.039041548967 -0.02564220503
          -0.08050403744 0.0061661852524 -0.083699978888 -0.054549779743 -0.074580326676 0.0074141635559
          -0.024451917037 -0.082764133811 -0.12680567801 0.10531341285 0.15551450849 0.10633411258
          0.17479513586 0.14735728502 0.2517080307 0.26466426253 0.2059032619 0.29442086816
          0.20516125858 0.23353259265 0.20991820097 0.29550087452 0.26207330823 0.20546352863
          0.14478854835 0.45985493064 0.50230759382 0.45794945955 0.5238596797 0.49676933885
          0.58604961634 0.59397470951 0.5430405736 0.62726873159 0.54742288589 0.57036244869
          0.54291671515 0.62661772966 0.59808671474 0.55055707693 0.49038299918 0.724822402
          0.61143213511 0.72567176819 0.56943190098 0.63762813807 0.40636244416 0.3792796433
          0.50155949593 0.31088474393 0.50757998228 0.44438582659 0.50190889835 0.31192457676
          0.38291704655 0.50557553768 0.63695704937 0.43768596649 0.41855826974 0.35003778338
          0.52233034372 0.46614518762 0.34635156393 0.40624898672 -0.77288526297 -0.64681863785
          -0.76843130589 -0.81279373169 -0.73264020681 -0.80604577065 -0.60595548153 -0.70822113752
          -0.67935669422 -0.75651049614 -0.4161952734 -0.3826931417 -0.5256511569 -0.58645808697
          -0.56573712826 -0.65424692631 -0.30661398172 -0.51726156473 -0.53086036444 -0.66157084703
          -0.46194246411 -0.61633485556 -0.51953756809 -0.64878857136 -0.31097117066 -0.51639640331
          -0.39630994201 -0.57257080078 -0.5339449048 -0.66470992565 -0.67036014795 -0.74186438322
          -0.71165424585 -0.69071686268 -0.70669925213 -0.68604958057 -0.69742482901 -0.66615390778
          -0.66300821304 -0.6757170558 -0.65807068348 -0.67574936152 -0.66739499569 -0.6711371541
          -0.65218353271 -0.65665453672 -0.67271310091 -0.68860310316 -0.56508517265 -0.57922375202
          -0.55813139677 -0.58783137798 -0.57612580061 -0.62817621231 -0.63879722357 -0.60014104843
          -0.66448658705 -0.5997787118 -0.61200284958 -0.59875881672 -0.6538143754 -0.62147080898
          -0.59376806021 -0.56575030088 -0.26388919353 -0.31025451422 -0.25959670544 -0.33206111193
          -0.30089348555 -0.41340631247 -0.4249252677 -0.3590990603 -0.46792423725 -0.36153274775
          -0.3907405138 -0.35038819909 -0.46180313826 -0.417635113 -0.35615828633 -0.28885349631
          0.1664815098 0.096184082329 0.17193359137 0.068012788892 0.11377830058 -0.056657746434
          -0.076683677733 0.015934828669 -0.12778061628 0.019878348336 -0.025151204318 0.018993087113
          -0.12527027726 -0.068205960095 0.022333508357 0.11403270811 0.63642716408 0.54125249386
          0.63682132959 0.49930784106 0.55698657036 0.34381985664 0.31803709269 0.44377067685
          0.24553000927 0.44306153059 0.37954479456 0.4421171248 0.24459578097 0.3160597384
          0.43255656958 0.5622177124 0.90087378025 0.81006151438 0.90224546194 0.7718732357
          0.8244253993 0.63788533211 0.61871850491 0.72481620312 0.55557763577 0.72180569172
          0.66431492567 0.71645057201 0.55091935396 0.60503530502 0.7072353363 0.82532513142
          0.95422154665 0.87290233374 0.95124071836 0.84236067533 0.88839673996 0.72659343481
          0.71112281084 0.79818624258 0.65824973583 0.7967902422 0.75016522408 0.79375267029
          0.64963454008 0.6970050931 0.78735715151 0.88395088911 0.83181923628 0.76973003149
          0.82849556208 0.7468572855 0.78198605776 0.65686702728 0.64728176594 0.71213966608
          0.60817778111 0.71170628071 0.67185336351 0.70600348711 0.59893804789 0.62770211697
          0.70014429092 0.7760361433 0.48928827047 0.45887589455 0.47965151072 0.45760375261
          0.47473651171 0.41597953439 0.41553378105 0.43588465452 0.40046545863 0.44030889869
          0.42466592789 0.42912238836 0.39035147429 0.39932230115 0.43769481778 0.45345151424
          0.032539702952 0.031446073204 0.030843064189 0.035998981446 0.03394658491 0.040054958314
          0.043653734028 0.036261200905 0.046009007841 0.03741710633 0.039252758026 0.037026133388
          0.043715227395 0.038239352405 0.038764815778 0.032911326736 -0.33918136358 -0.35456976295
          -0.32982310653 -0.36722019315 -0.35662648082 -0.40133422613 -0.4066734314 -0.37452551723
          -0.43088787794 -0.37864562869 -0.391241014 -0.36808717251 -0.42528000474 -0.39948272705
          -0.37635010481 -0.33969345689 -0.45476898551 -0.55302983522 -0.4475517571 -0.59495103359
          -0.53183186054 -0.75594210625 -0.77510493994 -0.65400969982 -0.8571498394 -0.65647113323
          -0.71548867226 -0.64431226254 -0.8525545001 -0.76803469658 -0.64801836014 -0.51801675558
          -0.43727901578 -0.57365548611 -0.42939007282 -0.62797194719 -0.54184925556 -0.86400169134
          -0.89863312244 -0.71654772758 -1.0150595903 -0.71673387289 -0.80082190037 -0.71040052176
          -1.006008029 -0.88514578342 -0.7082452774 -0.53116720915 -0.33152714372 -0.47622680664
          -0.32568252087 -0.53291296959 -0.43862637877 -0.77901363373 -0.81529283524 -0.62402755022
          -0.93640130758 -0.62545990944 -0.71299481392 -0.619795084 -0.92626607418 -0.8026329875
          -0.6166587472 -0.43570873141 -0.13624218106 -0.26433673501 -0.13293215632 -0.31434100866
          -0.23111602664 -0.54193675518 -0.57900351286 -0.39869752526 -0.6930385828 -0.39946678281
          -0.48348739743 -0.39365211129 -0.68034672737 -0.56305503845 -0.39205160737 -0.22712822258
          0.25103795528 0.11752808839 0.25460019708 0.069279678166 0.15258839726 -0.16402323544
          -0.20434732735 -0.022056162357 -0.31487584114 -0.02144199796 -0.1039897874 -0.018173152581
          -0.30218985677 -0.17974205315 -0.005149224773 0.15486955643 0.84641778469 0.70190751553
          0.85072666407 0.64564621449 0.73588752747 0.39956921339 0.35973361135 0.55301481485
          0.24176380038 0.55213546753 0.46073719859 0.55499660969 0.24532482028 0.37285143137
          0.55705481768 0.74035459757 1.487942934 1.3349199295 1.4877976179 1.2782531977
          1.3733478785 1.0235699415 0.98412203789 1.1783918142 0.87154340744 1.1795630455
          1.0840951204 1.1761782169 0.8725438118 0.99041032791 1.1810778379 1.3738439083
          -0.16218298674 -0.13708110154 -0.16472178698 -0.12895718217 -0.14309556782 -0.078488789499
          -0.065260268748 -0.10504349321 -0.050674591213 -0.10894233733 -0.095665961504 -0.1019725129
          -0.058084156364 -0.082421906292 -0.11592882127 -0.14423380792 0.30720290542 0.29431930184
          0.24485503137 0.37133792043 0.32333311439 0.23906412721 0.27762675285 0.72968238592
          0.7727971077 0.8123485446 0.83819681406 0.7679052949 0.7013130188 0.76500296593
          0.83212184906 0.7610964179 0.79566466808 0.7174821496 0.75430107117 0.69925534725
          0.59560191631 0.6919721961 0.79130244255 0.85464674234 0.69478738308 0.54067134857
          0.6926599741 0.85352355242 0.69486415386 0.789711833 0.59722954035 0.69243270159
          0.53991562128 0.48664993048 0.63209402561 0.77080452442 0.85540652275 0.62699377537
          0.39766940475 0.62516337633 0.84900724888 0.62008607388 0.75625211 0.47884079814
          0.6131914258 0.39549639821 0.37678265572 0.49267712235 0.61407262087 0.69359350204
          0.49464166164 0.30445918441 0.49547421932 0.68867325783 0.49334192276 0.61063355207
          0.37053337693 0.48630848527 0.30273300409 0.16605086625 0.24346062541 0.31704220176
          0.35153380036 0.23640911281 0.11243914068 0.23447562754 0.34630304575 0.23744775355
          0.30545338988 0.17218278348 0.24401721358 0.11824987084 7.176099992e-11 -1.2314967102e-10
          -2.5289017408e-11 5.079908369e-11 -1.9134612297e-11 -7.126101792e-11 -8.2098884982e-12 5.6702325127e-12
          -3.3161952459e-13 0 0 0 2.3759921981e-12
        </DataArray>
        <DataArray type="Float32" Name="uz" format="ascii" RangeMin="-0.55354106426" RangeMax="0.41335600615">
          -0.18584960699 -0.11956662685 -0.20891706645 -0.20294724405 -0.20708590746 -0.22939002514
          -0.15004825592 -0.10435275733 0.0035744209308 -0.049489628524 -0.11324994266 -0.039822470397
          -0.13407124579 -0.067183539271 -0.29288768768 -0.25424706936 -0.30551469326 -0.26628959179
          -0.063398420811 -0.030180256814 -0.096020907164 0.018572373316 -0.020543189719 -0.32825160027
          -0.29234537482 -0.31655880809 -0.15788803995 -0.099427215755 -0.075144402683 -0.022139379755
          -0.13698863983 -0.072321556509 -0.025577161461 -0.15569145977 -0.18277472258 -0.18657702208
          -0.24790000916 -0.13502216339 -0.05409764871 -0.060691155493 -0.11256802082 0.015397670679
          -0.025592070073 -0.14489041269 -0.098104156554 -0.12485576421 -0.12077663839 -0.19503575563
          -0.21347366273 0.0079748174176 0.073662832379 -0.2286490649 -0.22724406421 -0.27026200294
          -0.31281638145 -0.25315922499 -0.31765785813 0.017779575661 0.055864274502 -0.079074464738
          -0.077389404178 -0.04670432955 -0.11324036866 -0.11956324428 -0.11059305072 -0.075099080801
          -0.071536354721 -0.1259970516 -0.10173124075 -0.13489459455 -0.038703646511 -0.15923060477
          -0.16848114133 -0.15383161604 -0.031898081303 -0.094718717039 -0.076556615531 -0.089610219002
          -0.074498981237 -0.087314859033 -0.044067610055 -0.0285636466 -0.053822364658 -0.026558304206
          -0.060858886689 -0.054723575711 -0.046503614634 -0.034420192242 -0.04884634167 -0.068304054439
          -0.071413658559 -0.103891626 -0.076771736145 -0.12264040112 -0.039550986141 -0.057973593473
          0.014505332336 0.00059669214534 -0.046968199313 0.056755382568 -0.02655903995 0.017787666991
          -0.064010284841 0.07621666044 0.056630183011 0.0058918651193 -0.10987783968 -0.093344695866
          -0.082131139934 -0.1527826041 -0.007198501844 -0.0018845202867 0.022823121399 -0.029075523838
          -0.063666775823 0.061242800206 -0.014497975819 0.058416381478 -0.11126732826 0.12231010199
          0.13006107509 0.084271468222 -0.15771007538 -0.059140637517 -0.072961091995 -0.14654409885
          0.020343611017 0.049488250166 0.011668117717 -0.075560063124 -0.077645733953 0.031701918691
          -0.0078803608194 0.074107639492 -0.15545582771 0.12458386272 0.16689696908 0.13509732485
          -0.18108439445 -0.030073676258 -0.051577873528 -0.096725173295 0.018471345305 0.049562793225
          -0.0042584640905 -0.08046284318 -0.066674895585 -0.00076431338675 -0.0087262410671 0.053564682603
          -0.1290166229 0.077156968415 0.11980445683 0.1071472913 -0.13263326883 -0.01910675317
          -0.039648327976 -0.050546165556 -0.0087038697675 0.0072554317303 -0.029108559713 -0.066995672882
          -0.056652411819 -0.031220983714 -0.027641765773 0.0012032877421 -0.084699109197 0.0058554648422
          0.026378484443 0.0256527327 -0.075955405831 -0.003210705705 -0.018459033221 -0.0030001765117
          -0.020750164986 -0.013489757665 -0.043579716235 -0.047910418361 -0.03445379436 -0.052167080343
          -0.030669525266 -0.03546358645 -0.032450217754 -0.048888392746 -0.041656214744 -0.027979141101
          -0.014566575177 0.033946961164 0.016384039074 0.049074467272 -0.0055603268556 0.0052767987363
          -0.04460888356 -0.029732894152 -0.0017538985703 -0.071338385344 -0.016879733652 -0.044072922319
          0.017414806411 -0.08662225306 -0.071852780879 -0.033890992403 0.046547878534 0.073150999844
          0.058406438679 0.11086667329 0.0093079805374 0.014684882015 -0.020275270566 0.0021217723843
          0.041028495878 -0.057789515704 0.010737280361 -0.038372218609 0.065299659967 -0.088715270162
          -0.084871999919 -0.04564409703 0.10714309663 0.054803844541 0.07564701885 0.12411774695