<VTKFile type="UnstructuredGrid" version="1.0" byte_order="LittleEndian" header_type="UInt64">
  <UnstructuredGrid>
    <Piece NumberOfPoints="791" NumberOfCells="973">
      <PointData>
        <DataArray type="Float32" Name="ux" format="ascii" RangeMin="-0.87385553122" RangeMax="0.89787441492">
          0.12387204915 0.072499021888 0.16030801833 0.139780581 0.13818767667 0.16408579051
          0.084594585001 0.036006208509 -0.034494824708 -0.028684886172 0.028588132933 -0.017068671063
          0.056685402989 -0.014271463268 0.21904268861 0.19443786144 0.22483946383 0.20196287334
          0.048673585057 -0.029267724603 0.039000529796 -0.024194080383 -0.024634784088 0.24348659813
          0.22664539516 0.25096076727 0.079373277724 -0.47340270877 -0.52028656006 -0.53372251987
          -0.22263491154 -0.27761274576 -0.30557888746 -0.47123998404 -0.21019223332 -0.42777860165
          -0.15520511568 -0.52002519369 -0.5831142664 -0.55365818739 -0.27183538675 -0.3622123003
          -0.32236421108 -0.52992838621 -0.28783324361 -0.50940912962 -0.25575327873 -0.46831202507
          -0.20239703357 -0.60392665863 -0.39176362753 -0.48030155897 -0.21534898877 -0.43798077106
          -0.1516700238 -0.4181779325 -0.13216587901 -0.585516572 -0.36471381783 -0.59947103262
          -0.61525589228 -0.60993206501 -0.60166704655 -0.58406317234 -0.62282001972 -0.63936465979
          -0.62726664543 -0.6269620657 -0.61549049616 -0.60686135292 -0.63613402843 -0.60771268606
          -0.5892277956 -0.58010357618 -0.62092858553 -0.62262380123 -0.58762675524 -0.56484133005
          -0.6289562583 -0.66463565826 -0.59335875511 -0.55950069427 -0.56569349766 -0.58464604616
          -0.60291582346 -0.63123756647 -0.53556990623 -0.62215209007 -0.65080881119 -0.66794556379
          -0.53624284267 -0.58231437206 -0.52087563276 -0.4898763895 -0.60295248032 -0.65884590149
          -0.53621810675 -0.44619995356 -0.48344501853 -0.51713430882 -0.55131673813 -0.60511159897
          -0.41184014082 -0.5924808383 -0.65067780018 -0.68232321739 -0.42541000247 -0.3680973053
          -0.32656940818 -0.30234336853 -0.38886591792 -0.43682721257 -0.34349671006 -0.28190693259
          -0.30567666888 -0.32591843605 -0.3529407382 -0.39317762852 -0.25892052054 -0.37916982174
          -0.43250107765 -0.46018135548 -0.27043700218 -0.10649608821 -0.042526382953 -0.020962443203
          -0.11893393099 -0.17565524578 -0.040681287646 0.050449121743 0.0056668482721 -0.01695686765
          -0.061601370573 -0.11602207273 0.07584964484 -0.09792163223 -0.16809348762 -0.19677977264
          0.052346482873 0.22254773974 0.33307847381 0.36239403486 0.20984345675 0.11982183903
          0.34706667066 0.49394899607 0.42071405053 0.38368332386 0.30484548211 0.21652878821
          0.53074210882 0.23845426738 0.12622880936 0.084115177393 0.47888293862 0.49138906598
          0.59403645992 0.61556041241 0.48037770391 0.3961841464 0.60303479433 0.74724578857
          0.67454385757 0.63171297312 0.56234544516 0.48016774654 0.78609651327 0.49522691965
          0.38864213228 0.35764688253 0.73206269741 0.63772171736 0.70974075794 0.72858035564
          0.62555629015 0.57127821445 0.71286922693 0.8369051218 0.77428454161 0.73625862598
          0.68360370398 0.61742699146 0.86616510153 0.61808699369 0.54264366627 0.5333032608
          0.81664925814 0.52555072308 0.59570717812 0.61272525787 0.51467049122 0.4579846561
          0.59887051582 0.71410149336 0.65700757504 0.62022691965 0.57783037424 0.50656551123
          0.73978382349 0.51018851995 0.43257629871 0.41775918007 0.69631403685 0.28860250115
          0.34649187326 0.35845646262 0.27900439501 0.23384517431 0.34435045719 0.43487292528
          0.39140820503 0.36245682836 0.33172258735 0.27686047554 0.46191179752 0.28270313144
          0.22593596578 0.20611828566 0.42900377512 -0.03861394152 -0.0097562847659 -0.0044428878464
          -0.03851961717 -0.061829242855 -0.018790069968 0.0033121982124 0.00059644662542 -0.021329451352
          -0.02321559377 -0.044089064002 0.011575244367 -0.044052902609 -0.057465970516 -0.064865991473
          0.014844059013 -0.42478343844 -0.41558805108 -0.41155737638 -0.42330420017 -0.43211302161
          -0.40362241864 -0.40964990854 -0.41133216023 -0.39482262731 -0.41465905309 -0.41389289498
          -0.41518312693 -0.40051460266 -0.41604155302 -0.4288738966 -0.41237169504 -0.71013087034
          -0.6950288415 -0.68424510956 -0.71829742193 -0.73718219995 -0.68243503571 -0.66279608011
          -0.68065774441 -0.66717010736 -0.70018291473 -0.70837891102 -0.66987639666 -0.68898540735
          -0.72203123569 -0.74418324232 -0.67051845789 -0.711163342 -0.65217751265 -0.61791145802
          -0.73480576277 -0.79193913937 -0.65213382244 -0.56597876549 -0.60855060816 -0.62444621325
          -0.67486196756 -0.7381067276 -0.55355221033 -0.71404421329 -0.79219281673 -0.82450294495
          -0.56430214643 -0.38265672326 -0.28786298633 -0.25685736537 -0.40451130271 -0.48947075009
          -0.28768563271 -0.16002379358 -0.22128994763 -0.25406348705 -0.31944423914 -0.39942902327
          -0.12080521137 -0.37834632397 -0.4796795249 -0.53020691872 -0.1560151279 0.010828862898
          0.12297347188 0.15970899165 -0.0054135806859 -0.106396541 0.11908683926 0.26553246379
          0.19964002073 0.1505998224 0.087413981557 -0.0070005925372 0.30935674906 0.015480103903
          -0.092095606029 -0.14167007804 0.2716486454 0.36025413871 0.45581388474 0.4812335968
          0.34115120769 0.25752383471 0.44940415025 0.58162516356 0.52155292034 0.4739599824
          0.42420876026 0.33599308133 0.61996817589 0.34976497293 0.25123724341 0.21603156626
          0.58235687017 0.64757412672 0.73488605022 0.76116663218 0.6315048933 0.54983919859
          0.73890239 0.85971421003 0.80005985498 0.76455366611 0.70818680525 0.6329433322
          0.89787441492 0.6526556015 0.54924041033 0.51001924276 0.85785257816 0.12625078857
          0.047685243189 0.060707509518 0.096962742507 0.16601106524 -0.0074788248166 -0.087266117334
          -0.015458105132 -0.05661521852 0.036770813167 0.068145371974 -0.063747979701 0.0099725285545
          0.090237826109 0.15509043634 -0.0068983398378 0.085929438472 -0.001288117026 0.056287746876
          0.10620768368 0.15869246423 0.14061130583 0.21269652247 0.33598172665 0.33825618029
          0.34070682526 0.5090162158 0.50268256664 0.49773967266 0.33405989408 0.50456011295
          0.33005452156 0.51970338821 0.33890089393 0.34799134731 0.34509930015 0.50124287605
          0.50334924459 0.49900075793 0.33905160427 0.50481265783 0.33753320575 0.5029540658
          0.3329437077 0.49925145507 0.34642389417 0.49953302741 0.32756823301 0.49284154177
          0.3214353919 0.49003872275 0.32477280498 0.50804466009 0.34414663911 0.49398988485
          0.59143006802 0.54045897722 0.51939874887 0.60624188185 0.65728259087 0.54771184921
          0.47967389226 0.50859647989 0.53269082308 0.56446194649 0.60432171822 0.44931215048
          0.58893889189 0.64450436831 0.67436438799 0.46083423495 0.52405959368 0.45101580024
          0.42174467444 0.55436402559 0.62155759335 0.45938354731 0.33381727338 0.39058810472
          0.42536148429 0.48601192236 0.56277567148 0.29952865839 0.54666239023 0.64249241352
          0.66938644648 0.33176210523 0.38141310215 0.29512166977 0.25987681746 0.40849500895
          0.48486626148 0.30052033067 0.17106951773 0.23268213868 0.27208429575 0.33278387785
          0.41073051095 0.12922751904 0.39626479149 0.49355468154 0.53399473429 0.16691884398
          0.14808154106 0.080067269504 0.055160712451 0.16440269351 0.22853262722 0.077585309744
          -0.029897106811 0.0254332982 0.049428373575 0.10360088944 0.16316473484 -0.062292065471
          0.14406615496 0.22738535702 0.26530411839 -0.030426597223 -0.18256899714 -0.25187921524
          -0.27450972795 -0.16507847607 -0.10164480656 -0.24741069973 -0.35535356402 -0.30265679955
          -0.27439552546 -0.22666156292 -0.16230757535 -0.38068446517 -0.17250086367 -0.094582691789
          -0.069354839623 -0.34797552228 -0.47428828478 -0.50070655346 -0.49412462115 -0.48064815998
          -0.46607780457 -0.50079935789 -0.52883332968 -0.51532483101 -0.50285035372 -0.49662059546
          -0.47436907887 -0.53443992138 -0.46839287877 -0.45649418235 -0.46054238081 -0.51638543606
          -0.50738608837 -0.48163855076 -0.46166369319 -0.51911735535 -0.55422228575 -0.4910646677
          -0.45638522506 -0.46629968286 -0.48017835617 -0.49825292826 -0.52207642794 -0.43828102946
          -0.51163297892 -0.54561161995 -0.57186168432 -0.43842434883 -0.3716327548 -0.29855519533
          -0.27130195498 -0.38725739717 -0.45237579942 -0.30609896779 -0.21567766368 -0.25218680501
          -0.28484463692 -0.32185861468 -0.3863735795 -0.18742965162 -0.37180811167 -0.44703119993
          -0.47924399376 -0.20316074789 -0.27548837662 -0.16191957891 -0.12658931315 -0.29761719704
          -0.39508423209 -0.16636262834 -0.010000015609 -0.082003600895 -0.1310544461 -0.2041439563
          -0.29806482792 0.038034453988 -0.27428996563 -0.38735771179 -0.43772643805 -0.0032258541323
          -0.19785423577 -0.02389742434 0.041759397835 -0.23940342665 -0.39492875338 -0.028852185234
          0.22582989931 0.10615953058 0.032569140196 -0.081601396203 -0.24386610091 0.29824927449
          -0.21048514545 -0.40409708023 -0.4756488502 0.22708019614 -0.0325476937 0.14732597768
          0.20974883437 -0.078149989247 -0.24006517231 0.14057044685 0.3988481164 0.2770845592
          0.19751772285 0.082714743912 -0.084588512778 0.4707031846 -0.052207201719 -0.25303530693
          -0.33132502437 0.4013043642 0.20507894456 0.31991094351 0.35451439023 0.17750775814
          0.073520727456 0.31662723422 0.49648085237 0.41027310491 0.35906690359 0.28216293454
          0.1689568907 0.54059302807 0.19101327658 0.055028263479 0.013736366294 0.48422217369
          0.36607143283 0.46945053339 0.49478405714 0.35118892789 0.26210328937 0.46451929212
          0.6142809391 0.54336470366 0.49721264839 0.43465599418 0.34466981888 0.65235072374
          0.35389104486 0.24559299648 0.21358960867 0.60106468201 0.3590593338 0.47246730328
          0.49571946263 0.34480577707 0.25074899197 0.48254099488 0.65625613928 0.56782877445
          0.52112936974 0.44154241681 0.34403380752 0.69932335615 0.36016124487 0.23411849141
          0.19767211378 0.63153761625 0.16199274361 0.31459608674 0.35427650809 0.14446362853
          0.016563113779 0.33561256528 0.54236763716 0.43678945303 0.3865531981 0.27991789579
          0.15574805439 0.59572196007 0.19216291606 0.034024275839 -0.029332643375 0.52343863249
          -0.1441847831 0.0092153828591 0.05302657932 -0.16969421506 -0.2963218689 0.023442948237
          0.23492440581 0.12779505551 0.083035416901 -0.028839288279 -0.15587577224 0.28561630845
          -0.1120923534 -0.27728682756 -0.34896874428 0.22206476331 -0.43775001168 -0.30491891503
          -0.26152408123 -0.45834249258 -0.57335042953 -0.2962128222 -0.12051343173 -0.20496372879
          -0.24975827336 -0.34363463521 -0.44668745995 -0.065040931106 -0.41135749221 -0.54980957508
          -0.61485600471 -0.12058924139 -0.669670403 -0.52628695965 -0.47359678149 -0.69863647223
          -0.82562023401 -0.5312974453 -0.33787304163 -0.42648655176 -0.48327121139 -0.57301366329
          -0.70023787022 -0.27848729491 -0.66668432951 -0.81747585535 -0.87385553122 -0.33084961772
          0.13368672132 0.12527060509 0.085549794137 0.17553904653 0.19067080319 0.1895507127
          0.15420047939 0.13397942483 0.20572531223 0.16800734401 0.21362321079 0.10633797199
          0.24089765549 0.25033184886 0.2333689332 0.075969673693 0.11636183411 0.03643431142
          0.1200954169 0.11815440655 0.18351922929 0.19570195675 0.24194160104 -0.21537552774
          -0.26022198796 -0.21027751267 -0.086102150381 -0.10270799696 -0.079145647585 0.0018872827059
          0.074490189552 0.10314570367 0.2004648596 0.21863552928 0.25370839238 0.095596536994
          -0.24030511081 -0.28268805146 -0.22252731025 -0.079849749804 -0.10975444317 -0.094514667988
          -0.0003493737895 0.082396008074 0.10550182313 0.21250590682 0.22963988781 0.27194884419
          0.090627916157 -0.33100625873 -0.39771935344 -0.32140192389 -0.14162325859 -0.16814927757
          -0.1410073489 -0.025486430153 0.074779577553 0.10594599694 0.23805843294 0.24929073453
          0.30645054579 0.084133990109 -0.30218690634 -0.36905434728 -0.31794384122 -0.15442419052
          -0.17965625226 -0.15279382467 -0.060157287866 0.041356358677 0.051934942603 0.17995648086
          0.15456114709 0.22237022221 0.016930410638 -0.18638406694 -0.22535353899 -0.20065659285
          -0.098293185234 -0.11366523057 -0.097958631814 -0.033162023872 0.036456264555 0.040855746716
          0.12322672457 0.10087344795 0.14227442443 0.014841191471 4.1320663557e-10 -1.9320487432e-09
          -2.5582794563e-11 -4.0034021237e-11 -1.4330518716e-10 -2.346224777e-11 2.9168285842e-11 3.6378940225e-12
          7.7637908309e-14 0 0 0 -1.3031205889e-12
        </DataArray>
        <DataArray type="Float32" Name="uy" format="ascii" RangeMin="-0.88715022802" RangeMax="1.1613777876">
          0.34639206529 0.28952473402 0.26609605551 0.48930549622 0.61272215843 0.48266252875
          0.52441072464 0.3463562429 0.30486828089 0.38786286116 0.49749338627 0.55043530464
          0.61880993843 0.5536056757 0.30190137029 0.37999010086 0.5338370204 0.54141360521
          0.22394129634 0.44193828106 0.42738163471 0.22189557552 0.42202848196 0.41184684634
          0.42401731014 0.22346097231 0.4989733994 -0.035121403635 -0.07600300014 -0.032620865852
          0.3103877008 0.24734260142 0.30974256992 -0.097775444388 0.21679399908 -0.071891330183
          0.26018175483 -0.16830590367 -0.18206630647 -0.12209202349 0.11280371249 0.09464187175
          0.18098342419 -0.21612897515 0.046451807022 -0.12378267944 0.17688134313 -0.14973013103
          0.13424798846 -0.12055901438 0.17809280753 -0.20524384081 0.05185315758 -0.1748264879
          0.099024310708 -0.12008278817 0.17736911774 -0.05980971083 0.26259362698 -0.41153490543
          -0.42166361213 -0.40359306335 -0.43075713515 -0.42746782303 -0.45513004065 -0.44589751959
          -0.42863330245 -0.47097417712 -0.44021430612 -0.4547868073 -0.41467633843 -0.47573527694
          -0.46507823467 -0.44815891981 -0.39796572924 -0.69324564934 -0.64790117741 -0.68123739958
          -0.64539211988 -0.66186147928 -0.59621846676 -0.57770693302 -0.60856962204 -0.57170546055
          -0.62104356289 -0.61018949747 -0.59430932999 -0.57643735409 -0.59061825275 -0.62215387821
          -0.63749957085 -0.63430774212 -0.56576251984 -0.63144701719 -0.53285622597 -0.57621115446
          -0.43801859021 -0.42441990972 -0.49825042486 -0.38289782405 -0.49632278085 -0.45915749669
          -0.49546453357 -0.38506886363 -0.41948360205 -0.48884442449 -0.57241618633 -0.33270695806
          -0.27640151978 -0.32755875587 -0.24833212793 -0.2895668745 -0.17338865995 -0.17246320844
          -0.22704900801 -0.12874114513 -0.22210565209 -0.17963641882 -0.23802916706 -0.1213561818
          -0.14874584973 -0.21283584833 -0.29412192106 -0.14524634182 -0.078842975199 -0.14746341109
          -0.050611004233 -0.09145180881 0.053566969931 0.063120424747 -0.013204101473 0.11608109623
          -0.011167214252 0.033253513277 -0.015211275779 0.11966647953 0.075208865106 -0.0081226769835
          -0.097492344677 -0.049534380436 0.048286683857 -0.054670721292 0.088393010199 0.032318625599
          0.25067400932 0.27526438236 0.14881776273 0.3608084321 0.14571283758 0.21255598962
          0.14163956046 0.35992717743 0.27865424752 0.15329925716 0.018625130877 0.18803058565
          0.27845963836 0.17983537912 0.31812641025 0.26121300459 0.48731261492 0.51783186197
          0.3800303638 0.59962296486 0.37954869866 0.4416526854 0.37658926845 0.58969789743
          0.50177937746 0.37508058548 0.24503178895 0.40275859833 0.4628982842 0.39056420326
          0.49738022685 0.45904618502 0.61929869652 0.64157581329 0.53153181076 0.71079307795
          0.5367642045 0.58747726679 0.53130722046 0.70158457756 0.62393569946 0.53894662857
          0.43142899871 0.38540479541 0.45635813475 0.38656005263 0.48143061996 0.43085518479
          0.6194627285 0.64239537716 0.53716474771 0.71109551191 0.53047603369 0.58129400015
          0.53169202805 0.70495003462 0.62864017487 0.5195119977 0.43616053462 0.14810670912
          0.20889374614 0.1468937993 0.23146151006 0.19125524163 0.34037998319 0.35864022374
          0.27458107471 0.40617221594 0.27275082469 0.31074994802 0.27257394791 0.39879107475
          0.34594115615 0.26747018099 0.19172739983 -0.13566362858 -0.1138240546 -0.1360912472
          -0.10956570506 -0.11392770708 -0.095599755645 -0.094896651804 -0.10587925464 -0.084627591074
          -0.10204458982 -0.093722403049 -0.10134062171 -0.078970000148 -0.082471124828 -0.09561483562
          -0.11793250591 -0.31312373281 -0.30390056968 -0.30601468682 -0.30741482973 -0.30943921208
          -0.31036737561 -0.31208646297 -0.30261942744 -0.31558072567 -0.30715706944 -0.3056845665
          -0.29841005802 -0.30580937862 -0.30294069648 -0.30285605788 -0.29334652424 -0.40229582787
          -0.37348893285 -0.3884575665 -0.37135878205 -0.38801425695 -0.34240984917 -0.34633439779
          -0.35943827033 -0.33063080907 -0.35639920831 -0.34117856622 -0.35460698605 -0.31382527947
          -0.31812018156 -0.35006687045 -0.36804527044 -0.48333913088 -0.41620323062 -0.46634092927
          -0.39753347635 -0.43969616294 -0.30862128735 -0.3006029129 -0.36088633537 -0.25076496601
          -0.36193907261 -0.32599708438 -0.35596269369 -0.23499393463 -0.27539625764 -0.35628387332
          -0.40988773108 -0.49430775642 -0.3886410892 -0.48910453916 -0.35156783462 -0.41660261154
          -0.18810939789 -0.17041137815 -0.29022118449 -0.098050430417 -0.29290539026 -0.22372817993
          -0.28031694889 -0.087087221444 -0.15473860502 -0.27947551012 -0.40820243955 -0.25807648897
          -0.14811715484 -0.26293677092 -0.097802072763 -0.16336475313 0.0692345649 0.09021345526
          -0.039013359696 0.16760711372 -0.033612687141 0.031844064593 -0.043262515217 0.17178241909
          0.099893957376 -0.025917585939 -0.180682078 0.079796664417 0.17183928192 0.078212983906
          0.20683965087 0.14217880368 0.36349326372 0.38181000948 0.26395645738 0.46460396051
          0.2648973465 0.32755616307 0.25877419114 0.46410623193 0.39019671082 0.26533865929
          0.15016946197 0.31947594881 0.41905847192 0.32166481018 0.4505302012 0.39012905955
          0.62513536215 0.65243697166 0.5234143734 0.72361588478 0.51894503832 0.58547991514
          0.52529776096 0.72478199005 0.6447057128 0.51366078854 0.39507544041 0.60775923729
          0.5098041296 0.60479360819 0.47028762102 0.53003948927 0.32552468777 0.31915357709
          0.42779704928 0.23785421252 0.41201993823 0.34899485111 0.43118974566 0.21680410206
          0.27815681696 0.39987388253 0.53364402056 0.3209258616 0.30427259207 0.2275082022
          0.42269927263 0.35464796424 0.21216064692 0.28709101677 -0.50440883636 -0.51210790873
          -0.51029855013 -0.72858470678 -0.71909976006 -0.72751069069 -0.50854885578 -0.71140599251
          -0.50304788351 -0.7097774744 -0.52078938484 -0.51768475771 -0.51644986868 -0.70922780037
          -0.70852762461 -0.7142713666 -0.52221101522 -0.71165525913 -0.51554971933 -0.70835763216
          -0.51532125473 -0.69885748625 -0.51149505377 -0.70723885298 -0.51824492216 -0.70270889997
          -0.5071066618 -0.68138092756 -0.50227874517 -0.68367272615 -0.50925153494 -0.71518260241
          -0.75455260277 -0.69427508116 -0.74978160858 -0.67406708002 -0.70605295897 -0.58336007595
          -0.56588178873 -0.63323116302 -0.53492558002 -0.639790833 -0.60171639919 -0.62677145004
          -0.5331788063 -0.56411910057 -0.63044267893 -0.69760239124 -0.53255021572 -0.44135415554
          -0.52721011639 -0.41336089373 -0.47063875198 -0.25855919719 -0.22740373015 -0.34789544344
          -0.15955255926 -0.35566368699 -0.29971334338 -0.33861389756 -0.16510829329 -0.24116897583
          -0.35749873519 -0.45684221387 -0.26992842555 -0.16784748435 -0.26116609573 -0.13407634199
          -0.20009060204 0.028339309618 0.050671331584 -0.066228479147 0.1204026714 -0.069885544479
          -0.013960671611 -0.069976739585 0.11934481561 0.044892568141 -0.079270713031 -0.188254565
          0.013927202672 0.097840361297 0.016644705087 0.12450092286 0.063576675951 0.27093875408
          0.2915982306 0.19284744561 0.34574893117 0.18323716521 0.23451726139 0.18996456265
          0.34690275788 0.28582954407 0.17309780419 0.086509846151 0.18877828121 0.26129618287
          0.19108258188 0.292940557 0.24369189143 0.42064353824 0.43962278962 0.33755278587
          0.49904310703 0.33877557516 0.38598006964 0.33402407169 0.49569627643 0.43257927895
          0.33775246143 0.24346663058 0.48463693261 0.49514040351 0.47555914521 0.50372213125
          0.49509900808 0.52607822418 0.53254640102 0.50450241566 0.55109965801 0.51040589809
          0.51882916689 0.50754272938 0.54285216331 0.52315014601 0.50787192583 0.48532438278
          0.71061104536 0.66302138567 0.70064353943 0.64870417118 0.67600649595 0.58873271942
          0.58312809467 0.62095302343 0.56477814913 0.62540209293 0.59326839447 0.61309015751
          0.55530530214 0.56218761206 0.61214822531 0.66302907467 0.65821570158 0.5828139782
          0.64780402184 0.55662709475 0.60014235973 0.45540055633 0.43766254187 0.51448631287
          0.39252969623 0.51702356339 0.47403043509 0.51235389709 0.38609862328 0.43161556125
          0.50991636515 0.59093016386 0.50908952951 0.39441150427 0.51001793146 0.34237316251
          0.41330483556 0.16654849052 0.13498681784 0.2765045464 0.052818346769 0.27319636941
          0.20176742971 0.27935039997 0.053606547415 0.13807921112 0.26953837276 0.42279615998
          0.38378050923 0.20074701309 0.38025817275 0.12505497038 0.2444409579 -0.17226816714
          -0.21357099712 0.01279686112 -0.35758107901 0.010594431311 -0.10711975396 0.013437274843
          -0.36312276125 -0.22268584371 0.0041126115248 0.23742960393 0.14571341872 -0.052341960371
          0.13671095669 -0.125225842 0.0027205324732 -0.44346868992 -0.48228031397 -0.24451047182
          -0.63276708126 -0.24774216115 -0.37102264166 -0.24611444771 -0.6422996521 -0.49887761474
          -0.24891796708 -0.011400260031 -0.24953988194 -0.3645208478 -0.24857766926 -0.40905535221
          -0.33684524894 -0.6197385788 -0.65151613951 -0.48364409804 -0.75714248419 -0.48658934236
          -0.56941628456 -0.48229187727 -0.75715517998 -0.65241807699 -0.48791816831 -0.33098676801
          -0.45491570234 -0.54872000217 -0.4442653656 -0.59694939852 -0.53343009949 -0.77119642496
          -0.79214429855 -0.65052622557 -0.88715022802 -0.6591719389 -0.73295050859 -0.64162003994
          -0.88448959589 -0.79199939966 -0.65874069929 -0.50835424662 -0.36495566368 -0.47277534008
          -0.35062193871 -0.52390426397 -0.45632240176 -0.72666287422 -0.75333160162 -0.59270709753
          -0.8580429554 -0.59901022911 -0.68147164583 -0.58075541258 -0.85622614622 -0.74978458881
          -0.59436774254 -0.42090564966 0.017461707816 -0.12585383654 0.032996580005 -0.18989746273
          -0.10267009586 -0.41523084044 -0.44247668982 -0.26885432005 -0.55160498619 -0.2746168673
          -0.36121085286 -0.26417061687 -0.55398446321 -0.44578769803 -0.27470812201 -0.075005568564
          0.46192717552 0.31451788545 0.46888414025 0.24899210036 0.33989059925 0.020316177979
          -0.0076631233096 0.16851986945 -0.11785817891 0.16726754606 0.073614180088 0.16763608158
          -0.12520211935 -0.023960528895 0.15191295743 0.35796228051 0.74088591337 0.59698551893
          0.73948413134 0.54320299625 0.631059587 0.32837614417 0.30448135734 0.46119990945
          0.20462359488 0.46043068171 0.37639853358 0.45859527588 0.20216479897 0.28849953413
          0.45683053136 0.63080304861 1.0062844753 0.86264038086 1.0062451363 0.80689662695
          0.8958119154 0.588301301 0.55881738663 0.724619627 0.44961407781 0.72345817089
          0.64022856951 0.72799241543 0.44928947091 0.5551853776 0.72580242157 0.89268499613
          -0.054543677717 -0.094137199223 -0.053245812654 -0.10987662524 -0.084172599018 -0.17945975065
          -0.18728491664 -0.13712270558 -0.21895714104 -0.13708694279 -0.16327251494 -0.1333719641
          -0.21816553175 -0.18729542196 -0.13545583189 -0.080155357718 0.15284261107 0.13782502711
          0.085162252188 0.2217605263 0.1822283417 0.079376913607 0.13616046309 0.88055026531
          0.73425930738 0.59543585777 0.51266050339 0.73916202784 0.97884136438 0.73886150122
          0.51277381182 0.73803395033 0.59876960516 0.876527071 0.73386394978 0.97198390961
          1.0591520071 0.88941496611 0.7288531661 0.6331319809 0.8955052495 1.1613777876
          0.89863187075 0.6295580864 0.88999998569 0.72018349171 1.0439759493 0.87476092577
          1.159214139 0.83222299814 0.61705583334 0.41445741057 0.29635584354 0.62681901455
          0.96627664566 0.62772351503 0.30545112491 0.62992358208 0.42846560478 0.82658147812
          0.62694829702 0.95927190781 0.37256664038 0.21159029007 0.037930328399 -0.077496290207
          0.20178173482 0.46211975813 0.19564816356 -0.072496376932 0.19529099762 0.032574918121
          0.35646298528 0.19942201674 0.45472830534 0.075117737055 -0.014934186824 -0.12028744817
          -0.18922773004 -0.026143439114 0.12736608088 -0.025323454291 -0.18518161774 -0.027185730636
          -0.1105421856 0.068725280464 -0.018734607846 0.12094001472 2.0442187873e-11 2.5273893221e-12
          3.6271690512e-11 -1.5939242981e-11 1.9383725527e-11 9.2398241835e-12 8.1274206115e-12 -5.3880077483e-13
          8.0682118972e-13 0 0 0 -1.9452234962e-12
        </DataArray>
        <DataArray type="Float32" Name="uz" format="ascii" RangeMin="-0.44693818688" RangeMax="0.24217602611">
          -0.076090894639 -0.023698883131 -0.11430556327 -0.11740099639 -0.15763875842 -0.18565876782
          -0.086054086685 0.0035505041014 0.089743450284 0.065560944378 -0.0097942929715 0.038311190903
          -0.067753560841 0.0196518749 -0.1874256283 -0.15657553077 -0.27614694834 -0.20723080635
          0.022066434845 0.065715879202 -0.02594711259 0.10564631969 0.060766544193 -0.29556405544
          -0.21972028911 -0.21965806186 -0.059347670525 0.038166247308 0.077887415886 0.15205030143
          0.090101063251 0.099576547742 0.20845660567 -0.039772354066 -0.029323080555 -0.087153606117
          -0.053960610181 -0.010420585051 0.088004387915 0.093025155365 -0.032328281552 0.05600412935
          0.08985272795 -0.032747257501 -0.079189233482 0.0070416815579 0.0036185588688 -0.092135742307
          -0.10158118606 0.17810936272 0.17952689528 -0.13826224208 -0.17277403176 -0.19367770851
          -0.20729567111 -0.17351660132 -0.16569522023 0.20492754877 0.23818293214 -0.053299233317
          -0.00040477010771 0.03508528322 -0.084658369422 -0.13960827887 -0.029762050137 0.054209310561
          0.026099029928 -0.015243297443 -0.03890157491 -0.10447739065 0.091350451112 -0.107701011
          -0.17603364587 -0.18683725595 0.088430613279 -0.1246497333 -0.10559696704 -0.11242522299
          -0.11585106701 -0.12754589319 -0.093539878726 -0.08572627604 -0.09759440273 -0.083642609417
          -0.10407533497 -0.1086461097 -0.089191421866 -0.094900764525 -0.11432631314 -0.12695015967
          -0.097790718079 -0.17905552685 -0.19049409032 -0.24411231279 -0.12540993094 -0.094745837152
          -0.13256126642 -0.1892927587 -0.18683695793 -0.12340480834 -0.14449229836 -0.092184983194
          -0.23966445029 -0.058790545911 -0.02822598815 -0.042548209429 -0.26128554344 -0.22965757549
          -0.22469384968 -0.30982881784 -0.13081432879 -0.11624722928 -0.092967137694 -0.15883438289
          -0.19984966516 -0.047087375075 -0.13987833261 -0.051844406873 -0.26798337698 0.029152696952
          0.045674096793 -0.013031259179 -0.32592892647 -0.27019333839 -0.23710697889 -0.34059384465
          -0.13761796057 -0.14809019864 -0.046845033765 -0.085985846817 -0.180830881 0.037512030452
          -0.12748983502 -0.022978978232 -0.22951756418 0.096121475101 0.073094792664 -0.01609983854
          -0.32711955905 -0.22985103726 -0.20587711036 -0.31134995818 -0.10083626211 -0.10477582365
          -0.026226023212 -0.074355952442 -0.15766999125 0.048376977444 -0.099570132792 0.00024972407846
          -0.21386012435 0.10967819393 0.097239710391 0.018992736936 -0.30742970109 -0.13791486621
          -0.13164529204 -0.20563797653 -0.053199589252 -0.037631198764 -0.024232616648 -0.074328303337
          -0.10712521523 0.010785223916 -0.059650037438 0.0066568236798 -0.16153857112 0.066294841468
          0.080855041742 0.043441209942 -0.2142803818 -0.048912189901 -0.05756354332 -0.069883368909
          -0.04090166837 -0.028708478436 -0.047998070717 -0.067939057946 -0.059538971633 -0.05446459353
          -0.047751430422 -0.035549882799 -0.080266237259 -0.036469284445 -0.018480725586 -0.016425058246
          -0.08187495172 0.021583985537 0.0074082775973 0.07032610476 -0.055514220148 -0.060206688941
          -0.081998623908 -0.055208101869 -0.01709305495 -0.11892767996 -0.050059888512 -0.10820040852
          0.01169768814 -0.16304263473 -0.17029941082 -0.13472013175 0.061171520501 0.045278731734
          0.034291718155 0.14230343699 -0.077741086483 -0.097415052354 -0.12795551121 -0.038978025317
          0.0014217169955 -0.17846500874 -0.070412330329 -0.17889042199 0.091119609773 -0.28130239248
          -0.30158555508 -0.22850658 0.15944847465 0.091962598264 0.050926670432 0.18381258845