<VTKFile type="UnstructuredGrid" version="1.0" byte_order="LittleEndian" header_type="UInt64">
  <UnstructuredGrid>
    <Piece NumberOfPoints="791" NumberOfCells="973">
      <PointData>
        <DataArray type="Float32" Name="ux" format="ascii" RangeMin="-0.9264434576" RangeMax="0.94828343391">
          -0.069660373032 -0.13981370628 -0.040240611881 -0.047555796802 -0.050635736436 -0.031341969967
          -0.12385648489 -0.17529012263 -0.26291638613 -0.25389066339 -0.1833743304 -0.24297811091
          -0.15180690587 -0.23884993792 0.035297930241 0.016634585336 0.048010829836 0.02607820183
          -0.17533484101 -0.25763532519 -0.18159513175 -0.25738963485 -0.25798532367 0.057861752808
          0.048464562744 0.06013764441 -0.11900180578 -0.55091935396 -0.60524451733 -0.62020480633
          -0.39366841316 -0.46089535952 -0.49173846841 -0.54545712471 -0.37784263492 -0.49722856283
          -0.31478866935 -0.60312718153 -0.68025720119 -0.64514935017 -0.45247486234 -0.55934911966
          -0.51352339983 -0.61481046677 -0.46936708689 -0.59052795172 -0.43363153934 -0.54129320383
          -0.36941951513 -0.70484346151 -0.59727412462 -0.54875475168 -0.37964567542 -0.49768081307
          -0.30772766471 -0.47866752744 -0.28577339649 -0.68051987886 -0.56588351727 -0.55287146568
          -0.56747633219 -0.56355899572 -0.55328428745 -0.53943115473 -0.57262325287 -0.59336364269
          -0.5797226429 -0.57747882605 -0.5660443306 -0.55445683002 -0.59108108282 -0.55374360085
          -0.53581911325 -0.53165620565 -0.57530856133 -0.4585659802 -0.4176261127 -0.39666599035
          -0.46209082007 -0.50195169449 -0.42067730427 -0.38369330764 -0.39219760895 -0.41223424673
          -0.43171775341 -0.46068683267 -0.35731098056 -0.45018273592 -0.48237621784 -0.50446218252
          -0.36021152139 -0.34302997589 -0.26426935196 -0.23126353323 -0.36113485694 -0.43163299561
          -0.27788612247 -0.17322058976 -0.21537439525 -0.25716766715 -0.29718515277 -0.3605080843
          -0.13086593151 -0.34553101659 -0.41638696194 -0.45481061935 -0.1497400552 -0.12289358675
          -0.040195316076 -0.0067082792521 -0.14546443522 -0.22545973957 -0.053380556405 0.060807663947
          0.011965359561 -0.025117220357 -0.07557952404 -0.14721518755 0.099435143173 -0.12566803396
          -0.2152236104 -0.25815197825 0.071536973119 0.10786869377 0.21673479676 0.25092181563
          0.088949277997 -0.0055177030154 0.22227109969 0.37540742755 0.30053606629 0.26061689854
          0.18458496034 0.093203023076 0.41878375411 0.11939930916 0.0024295153562 -0.044371787459
          0.37362477183 0.3799456656 0.52210515738 0.56037032604 0.35923719406 0.24194355309
          0.53408151865 0.73091053963 0.63308346272 0.582020998 0.48175278306 0.36352068186
          0.78073972464 0.3906968236 0.24219441414 0.18988783658 0.71357512474 0.58045685291
          0.70336353779 0.73128312826 0.56427013874 0.46363508701 0.71290826797 0.89206838608
          0.80162972212 0.75074058771 0.66561108828 0.56286293268 0.93827807903 0.58172059059
          0.45116564631 0.41358661652 0.87220597267 0.64496040344 0.72536623478 0.7452095747
          0.63204908371 0.56989634037 0.72897672653 0.86472386122 0.79599606991 0.75706166029
          0.69774407148 0.62507379055 0.89568471909 0.62879765034 0.54393512011 0.52983593941
          0.84185361862 0.45600196719 0.51398593187 0.52689164877 0.44696259499 0.40106132627
          0.51761007309 0.61438500881 0.56571340561 0.53652274609 0.50008749962 0.44132849574
          0.63457590342 0.4441742003 0.37988874316 0.36831361055 0.59713435173 0.15728622675
          0.17589966953 0.17840468884 0.15437808633 0.14129507542 0.17368079722 0.20575273037
          0.19018794596 0.17911584675 0.17203807831 0.15321443975 0.2173358649 0.15350303054
          0.13816390932 0.13203144073 0.20415216684 -0.18539638817 -0.21233424544 -0.22134281695
          -0.17591077089 -0.15256790817 -0.22017528117 -0.27760708332 -0.24316114187 -0.23959226906
          -0.20661051571 -0.17850075662 -0.28985676169 -0.18627117574 -0.14364133775 -0.13251620531
          -0.2619549036 -0.53546226025 -0.59420901537 -0.60935652256 -0.52314597368 -0.47432237864
          -0.58518004417 -0.68418037891 -0.64049965143 -0.59880310297 -0.5723553896 -0.51426225901
          -0.71459078789 -0.51419180632 -0.45813176036 -0.44489395618 -0.68180841208 -0.74617356062
          -0.81012576818 -0.82323199511 -0.74182140827 -0.69288349152 -0.80220353603 -0.88974916935
          -0.85493206978 -0.81328189373 -0.79091536999 -0.73599648476 -0.9264434576 -0.73464441299
          -0.68439739943 -0.67154723406 -0.89484423399 -0.67177248001 -0.71260929108 -0.71380776167
          -0.67648941278 -0.64654678106 -0.71254068613 -0.76049590111 -0.74140745401 -0.71556097269
          -0.70265972614 -0.68128567934 -0.7890163064 -0.67933523655 -0.65483045578 -0.6432159543
          -0.7651874423 -0.30592900515 -0.32744604349 -0.33413404226 -0.30563890934 -0.28925293684
          -0.32553270459 -0.35373321176 -0.34391400218 -0.32816973329 -0.32095333934 -0.30370852351
          -0.36553364992 -0.30595576763 -0.28766351938 -0.2874353528 -0.35836741328 0.13838933408
          0.12015291303 0.11222203821 0.14703188837 0.16063573956 0.12032435834 0.090079523623
          0.10326901078 0.11248113215 0.1291885674 0.14512749016 0.076455771923 0.14232888818
          0.16657999158 0.17251306772 0.086804963648 0.54140532017 0.50550234318 0.48856201768
          0.54833632708 0.5793415308 0.50017720461 0.44889208674 0.47502076626 0.48298588395
          0.51793670654 0.54421418905 0.433160007 0.53216582537 0.57325142622 0.59194797277
          0.44843122363 0.89126265049 0.84867787361 0.83149778843 0.90177667141 0.93438512087
          0.85154461861 0.78953832388 0.81658291817 0.83468860388 0.86385458708 0.90236723423
          0.77372270823 0.89463120699 0.93246752024 0.94828343391 0.78737539053 -0.079374864697
          -0.16942641139 -0.15937045217 -0.10577940941 -0.028584459797 -0.22404530644 -0.32141062617
          -0.24277943373 -0.27561730146 -0.17609959841 -0.13452351093 -0.30664879084 -0.191147089
          -0.10021146387 -0.034327264875 -0.24390922487 -0.13251139224 -0.23626507819 -0.17167471349
          -0.10260887444 -0.045267395675 -0.075292997062 0.012150060385 0.20536984503 0.19628384709
          0.19221499562 0.49383813143 0.48909559846 0.48481890559 0.20695082843 0.49161222577
          0.21199688315 0.50457268953 0.20030933619 0.19241419435 0.1942743957 0.49020200968
          0.49223202467 0.48755481839 0.20055985451 0.49319553375 0.20107869804 0.49068564177
          0.20738901198 0.48809885979 0.18222168088 0.48811587691 0.2048317045 0.48377740383
          0.20736820996 0.48167750239 0.21204265952 0.49616953731 0.18169310689 0.48244294524
          0.69465333223 0.67296457291 0.65800023079 0.70733755827 0.73436480761 0.68042063713
          0.65024340153 0.66167467833 0.67192471027 0.68796110153 0.70775723457 0.63366311789
          0.69758844376 0.72771692276 0.74535053968 0.63340973854 0.71028965712 0.68835574389
          0.67293196917 0.73183864355 0.75677663088 0.69484603405 0.64163601398 0.66621762514
          0.6767231822 0.70640015602 0.74002969265 0.63120883703 0.73156136274 0.77690076828
          0.78475785255 0.64091193676 0.57931059599 0.56018453836 0.54619920254 0.59474897385
          0.61461246014 0.56558763981 0.52627688646 0.54650318623 0.55699634552 0.57578986883
          0.59948331118 0.51517176628 0.59696054459 0.62720263004 0.63940834999 0.52577769756
          0.32972767949 0.33142498136 0.33017539978 0.33381351829 0.33672997355 0.33118352294
          0.32214203477 0.32988467813 0.32666411996 0.33299604058 0.33518701792 0.3203523159
          0.33291909099 0.34219810367 0.34821778536 0.32326927781 -0.001770303119 0.0078555103391
          0.011094787158 -0.0009692760068 -0.006936435122 0.012671423145 0.018389062956 0.016414564103
          0.014288784005 0.0070723425597 0.0020555567462 0.024665929377 0.0076693524607 -0.001201344654
          -0.0080291861668 0.023393860087 -0.30705979466 -0.24959543347 -0.21904931962 -0.32766243815
          -0.38513842225 -0.24836979806 -0.15885438025 -0.20158334076 -0.22362138331 -0.27204662561
          -0.32352399826 -0.13176822662 -0.30268323421 -0.37942531705 -0.41412580013 -0.15204654634
          -0.41139742732 -0.30802497268 -0.26601475477 -0.43695008755 -0.53572458029 -0.31376415491
          -0.16889987886 -0.23415711522 -0.27721917629 -0.34830361605 -0.43912360072 -0.12298663706
          -0.41301736236 -0.5291839242 -0.58386033773 -0.15844137967 -0.3765861392 -0.2344250828
          -0.1864476949 -0.40495717525 -0.53020787239 -0.23961445689 -0.050815522671 -0.13612006605
          -0.19349731505 -0.28039202094 -0.40277409554 0.0033037210815 -0.37171471119 -0.5212533474
          -0.58406537771 -0.043640721589 -0.35146769881 -0.17701742053 -0.12302456796 -0.38343411684
          -0.5333173275 -0.17634268105 0.065467178822 -0.050526533276 -0.11876471341 -0.23624405265
          -0.3807118535 0.13569496572 -0.3409961462 -0.52092462778 -0.59871250391 0.065829850733
          -0.31228888035 -0.10382870585 -0.031427681446 -0.3566814065 -0.54166465998 -0.10411471128
          0.19454967976 0.051550075412 -0.030163392425 -0.17091284692 -0.35794690251 0.2772667408
          -0.31461444497 -0.54446768761 -0.63246738911 0.19007202983 -0.18687051535 0.00352214952
          0.066068448126 -0.23054116964 -0.40020099282 0.00067577988375 0.27117475867 0.14169897139
          0.063339926302 -0.061503987759 -0.23374390602 0.34475490451 -0.19665595889 -0.40760308504
          -0.49049511552 0.26888161898 0.010937049054 0.12142117321 0.15476670861 -0.013831627555
          -0.11298921704 0.12184502184 0.29122617841 0.20832455158 0.16320848465 0.086521185935
          -0.018821354955 0.33269700408 0.0058844848536 -0.12397065759 -0.16693869233 0.27873381972
          0.16747577488 0.23311597109 0.24838860333 0.15911862254 0.10153665394 0.23141495883
          0.32607451081 0.28056329489 0.25333818793 0.21215231717 0.15510289371 0.34935224056
          0.16115272045 0.091034553945 0.06987260282 0.31486093998 0.20744213462 0.24064058065
          0.24131055176 0.2081541568 0.18204773962 0.24851132929 0.30570185184 0.2735542953
          0.26137137413 0.23500688374 0.20801888406 0.31535825133 0.21086315811 0.17306086421
          0.16511683166 0.28713238239 0.12999565899 0.15910318494 0.15982186794 0.13640488684
          0.11507043242 0.17760705948 0.20657226443 0.18602332473 0.18779082596 0.16279551387
          0.14748586714 0.20940642059 0.1601767391 0.13381411135 0.11939715594 0.19258405268
          -0.0044071460143 4.5441276598e-05 -0.0040226918645 0.0011747510871 0.0023531694897 0.012939226814
          0.012352023274 0.0066273654811 0.021463293582 0.010011478327 0.013534476049 0.0034428669605
          0.026064522564 0.021478200331 0.010730394162 0.0026529903989 -0.11588453501 -0.13519798219
          -0.1435803771 -0.10587827861 -0.088527537882 -0.1280605346 -0.16876599193 -0.15052843094
          -0.13304775953 -0.12304383516 -0.095273301005 -0.17711926997 -0.092876791954 -0.068088315427
          -0.068925775588 -0.16786500812 -0.19149082899 -0.20881441236 -0.2109169811 -0.18704260886
          -0.17470259964 -0.21132984757 -0.243446365 -0.22630870342 -0.2168738693 -0.20188012719
          -0.18718186021 -0.24994239211 -0.18720170856 -0.16633509099 -0.15906055272 -0.23882730305
          -0.083255067468 -0.096446253359 -0.14294433594 -0.032493274659 -0.012991203927 -0.022656252608
          -0.071264900267 -0.091764822602 -0.00038334759302 -0.046535503119 0.010690490715 -0.1336902231
          0.048142492771 0.061399336904 0.040234185755 -0.16341114044 -0.10345783085 -0.19781242311
          -0.10824626684 -0.095388635993 -0.024373400956 -0.020901311189 0.039861999452 -0.47105780244
          -0.53316771984 -0.46341872215 -0.28984436393 -0.31601858139 -0.28735503554 -0.17571765184
          -0.072140015662 -0.038667410612 0.10063644499 0.11816030741 0.17239877582 -0.054882340133
          -0.48540395498 -0.55291301012 -0.46882647276 -0.26278811693 -0.30195757747 -0.27492022514
          -0.14343184233 -0.021196829155 0.011916325428 0.17229957879 0.19064193964 0.25651878119
          -0.011264532804 -0.4872174263 -0.57100558281 -0.479136765 -0.2552511692 -0.28814652562
          -0.25455775857 -0.11225635558 0.01751068607 0.055587157607 0.23059767485 0.24222025275
          0.31774973869 0.026689250022 -0.38522323966 -0.46559035778 -0.40130341053 -0.20282016695
          -0.23090109229 -0.1975081265 -0.083309590816 0.037472471595 0.057140681893 0.21567806602
          0.19499336183 0.27499720454 0.019471649081 -0.2247788012 -0.27731621265 -0.24123443663
          -0.11928851902 -0.13478983939 -0.11586672813 -0.039132039994 0.041157569736 0.051510680467
          0.15408678353 0.13076868653 0.18257600069 0.021044779569 5.6197757559e-10 -2.5284785377e-09
          -1.2591865051e-10 -2.5023781658e-11 -1.7323313617e-10 -3.5776152874e-11 3.7139687159e-11 9.6816597708e-13
          -4.1098694543e-13 0 0 0 -1.4377648377e-12
        </DataArray>
        <DataArray type="Float32" Name="uy" format="ascii" RangeMin="-0.94522559643" RangeMax="1.3343638182">
          0.34555125237 0.29172852635 0.26978778839 0.52681791782 0.68597984314 0.53708386421
          0.58337783813 0.34522011876 0.30894491076 0.40048730373 0.5331505537 0.60834336281
          0.69027173519 0.60820609331 0.30387821794 0.39476451278 0.59709471464 0.59884482622
          0.23541107774 0.47159269452 0.47060006857 0.23496162891 0.46544754505 0.45857831836
          0.45701685548 0.23103371263 0.53753995895 -0.179755494 -0.22962491214 -0.17741395533
          0.27667850256 0.20283412933 0.27878320217 -0.25311112404 0.16799454391 -0.21999154985
          0.2171022743 -0.3424487412 -0.35972568393 -0.28508368134 0.043861147016 0.020881360397
          0.12347306311 -0.40241509676 -0.035624351352 -0.28654924035 0.12078449875 -0.31840673089
          0.072058849037 -0.28340011835 0.12161648273 -0.39095059037 -0.026518763974 -0.34836888313
          0.031542629004 -0.28070601821 0.12261481583 -0.21149481833 0.22215586901 -0.63665354252
          -0.64622199535 -0.63168942928 -0.65220993757 -0.64659702778 -0.67646682262 -0.67031174898
          -0.65345591307 -0.69439667463 -0.66137290001 -0.67268180847 -0.64050889015 -0.69589239359
          -0.67972171307 -0.66116702557 -0.62639421225 -0.94522559643 -0.89806562662 -0.93709725142
          -0.89032536745 -0.9078233242 -0.83449620008 -0.81444358826 -0.85358470678 -0.80645549297
          -0.864988029 -0.84811079502 -0.83851391077 -0.81007134914 -0.82489299774 -0.86027169228
          -0.89077466726 -0.88500887156 -0.8027048111 -0.88452005386 -0.76535606384 -0.81370043755
          -0.64857143164 -0.62842541933 -0.72085231543 -0.58032721281 -0.72064065933 -0.67378664017
          -0.71539717913 -0.58320236206 -0.62541866302 -0.70948731899 -0.81348347664 -0.53954744339
          -0.44884189963 -0.53844320774 -0.40642285347 -0.46546286345 -0.27361664176 -0.26135671139
          -0.36331477761 -0.19246526062 -0.35803180933 -0.2952722609 -0.37132960558 -0.18653410673
          -0.24098086357 -0.34650930762 -0.47519508004 -0.22655938566 -0.11570524424 -0.23028667271
          -0.070897869766 -0.13891720772 0.10786148161 0.12878097594 -0.0044359974563 0.21596586704
          -0.0025922735222 0.068233221769 -0.0066538453102 0.21780087054 0.13759452105 -0.00167117815
          -0.14665350318 0.021430268884 0.15318161249 0.014959966764 0.20640768111 0.12681049109
          0.42709472775 0.45858857036 0.28844973445 0.57247173786 0.28686022758 0.37365025282
          0.28005418181 0.56974005699 0.45867702365 0.28910088539 0.113001436 0.32684829831
          0.43898436427 0.31688115001 0.48764306307 0.41542226076 0.69367617369 0.72701966763
          0.5616992712 0.82990151644 0.56367474794 0.63920909166 0.55564248562 0.8197055459
          0.71110534668 0.55571997166 0.39707258344 0.52946823835 0.59792304039 0.51647830009
          0.6363800168 0.59152925014 0.77202874422 0.79406481981 0.6752768755 0.87065494061
          0.68190640211 0.73684042692 0.67112207413 0.86163860559 0.77864027023 0.68152785301
          0.56222945452 0.45944646001 0.51682436466 0.45871803164 0.53823971748 0.49706590176
          0.65071243048 0.66816943884 0.58187788725 0.72609430552 0.5773679018 0.61953032017
          0.5769032836 0.72103571892 0.65793275833 0.56918460131 0.49834722281 0.21298208833
          0.23323433101 0.21195909381 0.24127799273 0.22785314918 0.28037795424 0.2883322835
          0.25735649467 0.30335217714 0.2561583221 0.26881730556 0.2573492229 0.29801541567
          0.28002935648 0.25477105379 0.22834482789 -0.028987085447 -0.060245364904 -0.026701653376
          -0.077605940402 -0.049177445471 -0.14982353151 -0.16063761711 -0.10502415895 -0.19458243251
          -0.10257341713 -0.12746588886 -0.097443446517 -0.18818828464 -0.14807231724 -0.094738475978
          -0.046779721975 -0.12327544391 -0.17964456975 -0.11416459829 -0.20914940536 -0.17038200796
          -0.31800013781 -0.33404219151 -0.24343563616 -0.39018589258 -0.24890129268 -0.28858691454
          -0.23749485612 -0.38048136234 -0.32603889704 -0.24470728636 -0.15193501115 -0.095893040299
          -0.1450470835 -0.081642538309 -0.17307168245 -0.14290034771 -0.26995843649 -0.29225999117
          -0.20841810107 -0.33592912555 -0.20636680722 -0.24005499482 -0.20384800434 -0.32084131241
          -0.26715782285 -0.20256415009 -0.1208409369 -0.069169312716 -0.10214995593 -0.053078141063
          -0.12133379281 -0.10448250175 -0.18784275651 -0.20453634858 -0.14530147612 -0.22680807114
          -0.14558972418 -0.1697832346 -0.14370000362 -0.21268734336 -0.18299347162 -0.14479319751
          -0.077147305012 -0.07875251025 -0.092207536101 -0.073801502585 -0.10075043887 -0.094280049205
          -0.12487145513 -0.13708111644 -0.11241281033 -0.14745916426 -0.1128051281 -0.11712276936
          -0.10880744457 -0.13792900741 -0.12219171971 -0.10622047633 -0.088006958365 0.0046094334684
          -0.01712166518 0.0017242266331 -0.020103793591 -0.0069535705261 -0.059719961137 -0.070031411946
          -0.039311122149 -0.086947932839 -0.03499089554 -0.049261916429 -0.044504147023 -0.083375267684
          -0.061493963003 -0.032588552684 -0.018404537812 0.09289265424 0.051433373243 0.091836087406
          0.035016421229 0.054498538375 -0.025295486674 -0.037911988795 0.0096764536574 -0.058466758579
          0.010987001471 -0.010132174939 0.004347385373 -0.059139169753 -0.031605087221 0.010066489689
          0.060207266361 0.073944807053 0.038291160017 0.075580194592 0.019696112722 0.042270116508
          -0.027487140149 -0.033688761294 0.0057612517849 -0.06395290792 0.0023196269758 -0.014698266052
          0.0072536747903 -0.062551282346 -0.038381572813 -0.0010161136743 0.045769959688 0.70860433578
          0.58503079414 0.70698726177 0.53585356474 0.61137855053 0.3457711041 0.32655692101
          0.47173276544 0.22939543426 0.46142846346 0.38408377767 0.4726626873 0.21567718685
          0.3003949523 0.45171460509 0.61423325539 0.35287079215 0.33097010851 0.24498294294
          0.46833577752 0.3928206563 0.23243565857 0.31800144911 -0.48143255711 -0.47637030482
          -0.48856955767 -0.61688226461 -0.6071818471 -0.61423718929 -0.46812164783 -0.60132294893
          -0.46946358681 -0.60127490759 -0.46005997062 -0.45116439462 -0.46693554521 -0.59741139412
          -0.59539145231 -0.60106223822 -0.44970303774 -0.59880661964 -0.46722501516 -0.59801417589
          -0.46191775799 -0.58957844973 -0.46098634601 -0.59458088875 -0.45023232698 -0.59283357859
          -0.45044770837 -0.57580721378 -0.45733547211 -0.57807594538 -0.47696641088 -0.60255664587
          -0.55727905035 -0.52290469408 -0.5480760932 -0.51559191942 -0.53362673521 -0.46745553613
          -0.45864662528 -0.49085754156 -0.44555059075 -0.49613761902 -0.47702240944 -0.48355457187
          -0.44167387486 -0.45421102643 -0.49131900072 -0.5175254941 -0.29841113091 -0.25731220841
          -0.28877258301 -0.25017076731 -0.27839782834 -0.18044307828 -0.16606853902 -0.21737654507
          -0.13608270884 -0.22313411534 -0.20009286702 -0.20988933742 -0.13715577126 -0.17303857207
          -0.22795857489 -0.25800651312 -0.041374918073 -0.0062852008268 -0.030979819596 0.0011756783351
          -0.024965649471 0.056564006954 0.061073478311 0.026589941233 0.084319755435 0.024086173624
          0.041110109538 0.022111847997 0.085935764015 0.060067150742 0.014417163096 -0.010088039562
          0.16624104977 0.17703668773 0.17026986182 0.17616118491 0.16068351269 0.20379675925
          0.20613457263 0.19602452219 0.20921061933 0.18859767914 0.19611291587 0.19315195084
          0.21160496771 0.20345233381 0.18037340045 0.1817946732 0.26005163789 0.25064504147
          0.26204356551 0.25052291155 0.25323593616 0.2428662926 0.24257788062 0.2437158972
          0.23856748641 0.24496102333 0.2418551147 0.24124193192 0.2361459285 0.23753383756
          0.24579392374 0.25228542089 0.47314956784 0.4000479579 0.46539887786 0.37677699327
          0.42079815269 0.26178002357 0.24874655902 0.32616364956 0.19991461933 0.33103403449
          0.28781720996 0.32998850942 0.19386675954 0.24118091166 0.33138850331 0.41246396303
          0.64201670885 0.52146059275 0.63492006063 0.47760087252 0.55062508583 0.29567807913
          0.27343830466 0.40601155162 0.19207929075 0.40776371956 0.33062267303 0.40170389414
          0.18365395069 0.25426474214 0.39753735065 0.54296463728 0.6251680851 0.48085197806
          0.61791485548 0.42532196641 0.5127722621 0.2104665339 0.18045809865 0.34391236305
          0.077816925943 0.34288698435 0.25481277704 0.34470003843 0.069769069552 0.16742175817
          0.33431601524 0.51001179218 0.53673696518 0.36314281821 0.5400210619 0.28789883852
          0.39487764239 0.013049926609 -0.028988841921 0.18642158806 -0.1606733799 0.18205969036
          0.071369916201 0.19048681855 -0.16264598072 -0.033668830991 0.17561210692 0.40790891647
          0.4309797883 0.21651500463 0.42952007055 0.12741726637 0.26454475522 -0.22151997685
          -0.26718503237 -0.001480554929 -0.43825033307 -0.0061802947894 -0.1453975141 0.00073517422425
          -0.44616860151 -0.28386792541 -0.015662850812 0.26410141587 0.2240498811 0.020806116983
          0.21834468842 -0.056447755545 0.073936186731 -0.38428848982 -0.42306697369 -0.17824019492
          -0.58118158579 -0.18225154281 -0.31114193797 -0.17756105959 -0.59170275927 -0.44380128384
          -0.18612024188 0.065607309341 -0.11529632658 -0.22524538636 -0.11368454248 -0.26860526204
          -0.19981457293 -0.46737143397 -0.49635586143 -0.3391969502 -0.5961047411 -0.3421728909
          -0.42051267624 -0.3376262188 -0.59700286388 -0.49998030066 -0.34418347478 -0.19390824437
          -0.32078126073 -0.37924724817 -0.31306380033 -0.41161680222 -0.3712901175 -0.52288275957
          -0.53424239159 -0.44313618541 -0.59771096706 -0.45052945614 -0.50053226948 -0.43620049953
          -0.59823560715 -0.53893303871 -0.45257019997 -0.35144880414 -0.31934931874 -0.34633901715
          -0.30814132094 -0.36587834358 -0.34849816561 -0.42943701148 -0.43509149551 -0.38237962127
          -0.47306936979 -0.38837748766 -0.4175530076 -0.37340006232 -0.47321933508 -0.43661937118
          -0.38707897067 -0.32000732422 -0.095593415201 -0.11354380101 -0.084430158138 -0.12772537768
          -0.11866404861 -0.14912512898 -0.14694619179 -0.13079175353 -0.15893922746 -0.13498604298
          -0.14454869926 -0.12813870609 -0.16360583901 -0.15454305708 -0.13794916868 -0.098109059036
          0.15062850714 0.15520474315 0.15616588295 0.1487467438 0.144821316 0.16458454728
          0.17149098217 0.16050559282 0.17701916397 0.15927189589 0.15926714242 0.15932056308
          0.16915780306 0.15455140173 0.14417953789 0.16011078656 0.2590700984 0.27491042018
          0.25843453407 0.28200849891 0.27116808295 0.32191568613 0.33362260461 0.29704296589
          0.354429245 0.29677549005 0.30991569161 0.29504773021 0.35145193338 0.31990915537
          0.29252666235 0.27075701952 0.35984665155 0.37806141376 0.35959151387 0.38499519229
          0.37343499064 0.42472317815 0.43249344826 0.40040570498 0.44871196151 0.39992120862
          0.41566747427 0.40313830972 0.44858041406 0.4302315712 0.40218436718 0.37121251225
          -0.10522908717 -0.12397430837 -0.10544356704 -0.13202294707 -0.11827379465 -0.16588313878
          -0.16327293217 -0.14297907054 -0.1840505302 -0.14573940635 -0.16031776369 -0.13736496866
          -0.1894313097 -0.17464315891 -0.14504316449 -0.11569119245 0.16928210855 0.15921728313
          0.10753152519 0.23159754276 0.19416078925 0.10078042746 0.15221659839 1.0067349672
          0.80067104101 0.6017023325 0.48229053617 0.80478471518 1.1393777132 0.80400371552
          0.4813220799 0.8018758893 0.6020630002 0.99934238195 0.7967684865 1.1324697733
          1.1856553555 0.94229918718 0.70754671097 0.56655943394 0.94852483273 1.3343638182
          0.95055139065 0.56359302998 0.94314014912 0.69929242134 1.1695768833 0.92729413509
          1.330673337 0.93236333132 0.66335624456 0.40559613705 0.25019687414 0.67111635208
          1.0989062786 0.67058372498 0.25502058864 0.67150336504 0.41119220853 0.92478656769
          0.66616749763 1.0929082632 0.45907145739 0.25108021498 0.032529719174 -0.10948523134
          0.24271485209 0.57895541191 0.23795305192 -0.10531046987 0.2377872169 0.028158215806
          0.44573163986 0.24093362689 0.57215934992 0.12982587516 0.011689585634 -0.1217488721
          -0.20940633118 0.00099240313284 0.19964469969 0.0015327164438 -0.20702792704 1.7322918211e-05
          -0.11536671966 0.1262871027 0.0076232794672 0.19472526014 -1.7883231354e-11 -6.5929332306e-12
          6.5491348455e-11 -2.5164407016e-11 4.36150005e-11 3.4393182746e-12 7.7264132592e-12 -2.332347206e-12
          1.7459640504e-12 0 0 0 -4.0233909954e-12
        </DataArray>
        <DataArray type="Float32" Name="uz" format="ascii" RangeMin="-0.4879412353" RangeMax="0.32056024671">
          -0.11220382154 -0.056099135429 -0.1475622803 -0.13700185716 -0.15954585373 -0.19069360197
          -0.080473154783 -0.028724672273 0.055671866983 0.043940525502 -0.022867953405 0.06255017221
          -0.060698378831 0.025216825306 -0.22236925364 -0.18911610544 -0.2895103097 -0.2227935195
          -0.010364759713 0.060695588589 -0.011964838952 0.072233565152 0.086038306355 -0.31377011538
          -0.24474199116 -0.25157210231 -0.075744196773 0.010989833623 0.10164313018 0.15253357589
          0.070230089128 0.12392709404 0.22395190597 -0.030611047521 -0.030632346869 -0.11509285867
          -0.090300694108 0.069503284991 0.20639970899 0.16049516201 0.025070115924 0.15930880606
          0.15255832672 0.085105754435 0.0047708568163 0.051500879228 0.035921193659 -0.048438079655
          -0.084103740752 0.2693386972 0.27360454202 -0.049421668053 -0.12938329577 -0.14928987622
          -0.20689733326 -0.17403686047 -0.1946015507 0.25081408024 0.29815584421 -0.058580432087
          0.03874380514 0.044121969491 -0.046837218106 -0.13152174652 0.07234609127 0.18077817559
          0.10544484854 0.12271820754 0.028591072187 -0.026793854311 0.18397806585 0.017418041825
          -0.085097372532 -0.14116337895 0.13538268209 -0.087260521948 -0.041055180132 -0.075118973851
          -0.040589809418 -0.070791967213 0.024431170896 0.0412722826 -0.0046468130313 0.061846408993
          -0.011913443916 -0.00038452559966 0.003686040407 0.049084350467 0.01021013502 -0.035783283412
          -0.039628818631 -0.09006562829 -0.10312376916 -0.1756080687 -0.014089397155 0.01970727928
          -0.017044061795 -0.090977974236 -0.097467914224 0.0018351204926 -0.03817955777 0.036699745804
          -0.1659810096 0.085203781724 0.12178435177 0.095896676183 -0.19971896708 -0.090965643525
          -0.11882977933 -0.21244832873 0.011057163589 0.054568383843 0.0061587723903 -0.10333012044
          -0.11998687685 0.040310990065 -0.02677311562 0.086638845503 -0.22188211977 0.15812188387
          0.20976749063 0.16759777069 -0.26299923658 -0.097928583622 -0.1128347367 -0.21506728232
          0.02219314687 0.051771555096 0.043848015368 -0.052195634693 -0.099238745868 0.098558135331
          -0.0075508365408 0.11711823195 -0.1889231801 0.20708273351 0.23680216074 0.18042553961
          -0.25055003166 -0.056935466826 -0.073066040874 -0.16591966152 0.04742661491 0.075082041323
          0.06093686074 -0.024315213785 -0.06338711828 0.10595995933 0.018121002242 0.1231206432
          -0.14426909387 0.19899047911 0.22758831084 0.18293169141 -0.20069350302 0.023510498926
          0.0062166447751 -0.043794982135 0.074522458017 0.1035213992 0.063716903329 0.0068773208186
          0.0043629822321 0.076109200716 0.052580781281 0.10488578677 -0.05045036599 0.13371621072
          0.16641935706 0.1559086889 -0.071950018406 0.1082322672 0.090460471809 0.10974684358
          0.078158885241 0.090779058635 0.048646584153 0.047445785254 0.074597902596 0.024517785758
          0.069126613438 0.051174484193 0.073402814567 0.018981480971 0.03608584404 0.063621707261
          0.096357896924 0.17784494162 0.16014531255 0.25362336636 0.066411554813 0.057975701988
          0.024804655463 0.077341578901 0.12800846994 -0.028533775359 0.074044659734 -0.015702141449
          0.18220281601 -0.10047382861 -0.11136035621 -0.052874643356 0.2502374649 0.19731937349
          0.18153809011 0.30602759123 0.052830994129 0.034369666129 -0.0068116555922 0.088652469218
          0.14216662943 -0.070712462068 0.060469258577 -0.064070537686 0.23910905421 -0.18304552138
          -0.20149624348 -0.11650017649 0.32056024671 0.22246012092 0.17665563524 0.30414789915