<VTKFile type="UnstructuredGrid" version="1.0" byte_order="LittleEndian" header_type="UInt64">
  <UnstructuredGrid>
    <Piece NumberOfPoints="791" NumberOfCells="973">
      <PointData>
        <DataArray type="Float32" Name="ux" format="ascii" RangeMin="-0.28675276041" RangeMax="0.41625574231">
          0.051820341498 0.06512375921 0.051091141999 0.049417629838 0.051193654537 0.051289778203
          0.064329043031 0.065760321915 0.084127575159 0.077298022807 0.066387668252 0.082347884774
          0.064876407385 0.076686516404 0.037222024053 0.040765788406 0.037502836436 0.040794052184
          0.076479107141 0.083117038012 0.075586296618 0.08991920948 0.088241800666 0.037741214037
          0.037487082183 0.036302313209 0.057562090456 0.10020126402 0.10810337216 0.11083886027
          0.080025628209 0.088190041482 0.090847119689 0.098106712103 0.078020595014 0.091094963253
          0.070773951709 0.10826737434 0.12045869976 0.11435817182 0.088472016156 0.1010665074
          0.094684287906 0.11141853034 0.091810703278 0.10533215106 0.085429564118 0.097836695611
          0.077784672379 0.12331081927 0.10387025028 0.099600315094 0.079618126154 0.090095244348
          0.069855928421 0.086983211339 0.066676035523 0.11950919777 0.099846579134 0.12461730093
          0.13237136602 0.13495689631 0.12262896448 0.115784958 0.13259786367 0.14454880357
          0.13853646815 0.13569913805 0.12969720364 0.12238896638 0.14729744196 0.12410527468
          0.114827618 0.11181243509 0.14349168539 0.15279737115 0.16039827466 0.16294428706
          0.15086649358 0.14418071508 0.16058316827 0.17231489718 0.16643589735 0.16358563304
          0.15777866542 0.15062347054 0.17505604029 0.15226384997 0.14323812723 0.14030918479
          0.17133316398 0.18380963802 0.19134515524 0.1938007623 0.18201728165 0.17542636395
          0.19159089029 0.20306797326 0.19732330739 0.19450838864 0.18881762028 0.18181601167
          0.20580080152 0.18342326581 0.17459769547 0.17170840502 0.20211465657 0.21625618637
          0.22393982112 0.22638310492 0.21450775862 0.20784729719 0.22416968644 0.23577868938
          0.23000839353 0.22703024745 0.22139286995 0.21432000399 0.23861593008 0.21585129201
          0.20704561472 0.20416255295 0.23488758504 0.24867716432 0.25654357672 0.25900220871
          0.24696397781 0.2401829958 0.25670960546 0.26853963733 0.26270693541 0.25956624746
          0.25393632054 0.24675351381 0.27150270343 0.24823963642 0.23939009011 0.23649951816
          0.26768797636 0.27932202816 0.28741726279 0.28988605738 0.27762967348 0.27068898082
          0.28758051991 0.29974254966 0.2937708199 0.29047498107 0.28476852179 0.27740687132
          0.30283731222 0.27887251973 0.26987209916 0.26694229245 0.2988755703 0.30643257499
          0.31498703361 0.31754598022 0.30470335484 0.29741677642 0.31520229578 0.32797735929
          0.32169929147 0.31822350621 0.3122420609 0.30450072885 0.33122715354 0.30600300431
          0.29657930136 0.29351112247 0.32702490687 0.32897853851 0.33796110749 0.34062311053
          0.32716569304 0.31951272488 0.3381780386 0.35160622001 0.34501069784 0.34133520722
          0.33507308364 0.32694575191 0.3550349474 0.32851397991 0.318610847 0.31540411711
          0.35061004758 0.3468080163 0.35607743263 0.35883969069 0.34494373202 0.33704701066
          0.35627117753 0.37010911107 0.36332640052 0.35951399803 0.3530587554 0.34470915794
          0.37366208434 0.34632092714 0.33616352081 0.33284920454 0.36911663413 0.35958340764
          0.36912682652 0.37198406458 0.35767492652 0.34953066707 0.36936545372 0.38352668285
          0.37658572197 0.3726901114 0.36604437232 0.35747876763 0.38718220592 0.3591824472
          0.34869754314 0.34523844719 0.38255691528 0.36751511693 0.3773894012 0.38043791056
          0.36548483372 0.35699209571 0.37759563327 0.39221531153 0.38507074118 0.38107138872
          0.37418016791 0.36532098055 0.39605438709 0.36716973782 0.35628011823 0.35257658362
          0.39135840535 0.37213745713 0.3822838068 0.385504812 0.37000486255 0.36121851206
          0.38239082694 0.39725908637 0.39007604122 0.38592791557 0.37892723083 0.36985233426
          0.40125343204 0.37180483341 0.36063873768 0.35672858357 0.39661940932 0.37488847971
          0.38518878818 0.3885076344 0.37272712588 0.36378178 0.38527038693 0.40019720793
          0.39301931858 0.38882708549 0.38176906109 0.372613132 0.40430295467 0.37466338277
          0.36337333918 0.35931366682 0.39973825216 0.37643450499 0.38694521785 0.39037975669
          0.37425893545 0.36510267854 0.38702228665 0.40206664801 0.39487373829 0.39060300589
          0.38345247507 0.37421926856 0.40630733967 0.37636995316 0.36493009329 0.36067870259
          0.40178650618 0.37750697136 0.38822248578 0.39177408814 0.37529763579 0.36595320702
          0.38828623295 0.40349620581 0.39626190066 0.39191958308 0.38467419147 0.3753054142
          0.40783855319 0.37755554914 0.36591243744 0.36151355505 0.4033562541 0.37917348742
          0.39008978009 0.39374697208 0.37688839436 0.36735579371 0.39012813568 0.40559446812
          0.39826405048 0.39382168651 0.3864492476 0.37690463662 0.41008198261 0.37918677926
          0.36733138561 0.36282145977 0.4055480957 0.38168519735 0.39280876517 0.39654532075
          0.37937712669 0.36965453625 0.39283874631 0.40858128667 0.40113121271 0.39660075307
          0.3891005218 0.37937948108 0.41314077377 0.38170173764 0.3696501255 0.36505311728
          0.40854108334 0.38463896513 0.39584174752 0.39957255125 0.38233318925 0.37257397175
          0.39584937692 0.41166588664 0.40419387817 0.39959329367 0.39211267233 0.38233357668
          0.41625574231 0.38464435935 0.37257763743 0.36796373129 0.41164591908 0.058419380337
          0.070405617356 0.07144510746 0.059472374618 0.049617584795 0.075038835406 0.089615032077
          0.079974256456 0.080858573318 0.069420360029 0.062204778194 0.090457506478 0.067426949739
          0.054868333042 0.048160213977 0.08349853754 0.069404184818 0.086587779224 0.075876116753
          0.062981456518 0.054286919534 0.060276910663 0.045693870634 0.058003328741 0.072291746736
          0.077038086951 0.057136252522 0.071561679244 0.076340228319 0.055206965655 0.054386194795
          0.042764473706 0.041779447347 0.072256609797 0.092066757381 0.082823969424 0.071527943015
          0.091388463974 0.082147054374 0.07680799067 0.076139427722 0.06758351624 0.066831216216
          0.055325616151 0.054544959217 0.09814363718 0.097468018532 0.058242756873 0.057547252625
          0.043151725084 0.042382676154 0.03717822209 0.036255978048 0.092445254326 0.091793783009
          0.05559977144 0.070029102266 0.074847623706 0.052834037691 0.040247168392 0.069924533367
          0.089713908732 0.0805535689 0.074499309063 0.065261855721 0.053013268858 0.09589137882
          0.056000195444 0.040897872299 0.034772258252 0.090305410326 0.053264003247 0.067682147026
          0.072494149208 0.050544723868 0.037972111255 0.067570082843 0.087240673602 0.078178964555
          0.072083316743 0.062939368188 0.050737805665 0.093440361321 0.053713556379 0.038713335991
          0.032581005245 0.087928339839 0.049388222396 0.063811033964 0.068605527282 0.046771943569
          0.034222368151 0.063662961125 0.083112716675 0.074216865003 0.068054370582 0.059100631624
          0.047026846558 0.08940576762 0.049964889884 0.035169944167 0.028983382508 0.084002412856
          0.043103616685 0.0574862957 0.062259286642 0.040594294667 0.028086053208 0.057305846363
          0.076415859163 0.067767061293 0.061567362398 0.052821330726 0.040928333998 0.082780450583
          0.043860774487 0.029302479699 0.023054216057 0.077552720904 0.033705528826 0.048019215465
          0.052785474807 0.031251385808 0.018802117556 0.047777522355 0.066627345979 0.058165419847
          0.051945205778 0.043371226639 0.031616017222 0.073006220162 0.034536600113 0.020195756108
          0.013952540234 0.067938677967 0.021189790219 0.03525801003 0.039935376495 0.01882074587
          0.0065931868739 0.035047970712 0.05346204713 0.045211434364 0.039124313742 0.030714107677
          0.019203299657 0.059733793139 0.02208802104 0.0080376509577 0.0018800804392 0.054789032787
          0.0054322751239 0.019262615591 0.023877575994 0.003063588636 -0.0089560607448 0.019087446854
          0.037259243429 0.029088811949 0.02313590236 0.014801997691 0.003454064019 0.043433826417
          0.0063228090294 -0.0075821834616 -0.013632457703 0.038526818156 -0.013157606125 0.00045964997844
          0.00503083691 -0.015557306819 -0.027410402894 0.00028646364808 0.018340110779 0.010185603052
          0.0043270718306 -0.003975932952 -0.015227734111 0.02439542301 -0.012406359427 -0.026189532131
          -0.032116413116 0.019501596689 -0.033782623708 -0.020451638848 -0.015955191106 -0.036214571446
          -0.047835033387 -0.020651139319 -0.0028297109529 -0.010898106731 -0.016644859686 -0.024820610881
          -0.035945296288 0.003053542925 -0.033212549984 -0.046832617372 -0.052591685206 -0.0017970948247
          -0.056208379567 -0.043157555163 -0.03878730163 -0.058612510562 -0.069975972176 -0.043294608593
          -0.025725033134 -0.033747762442 -0.039317674935 -0.047442857176 -0.058373328298 -0.020038478076
          -0.055664215237 -0.069083936512 -0.074693471193 -0.024874055758 -0.080469153821 -0.067613691092
          -0.06329292804 -0.0828769207 -0.094069071114 -0.067681774497 -0.050207782537 -0.058250725269
          -0.063677094877 -0.071828134358 -0.082675218582 -0.044667277485 -0.079989738762 -0.093347832561
          -0.09883389622 -0.049559280276 -0.1058030799 -0.093073762953 -0.088798627257 -0.1082791537
          -0.11937598884 -0.093157216907 -0.075661428273 -0.08375954628 -0.089116223156 -0.097289450467
          -0.10813640803 -0.0702188164 -0.10551903397 -0.1188756451 -0.12425862998 -0.075157776475
          -0.1318281889 -0.11917529255 -0.11494357884 -0.13433399796 -0.14534768462 -0.11924035102
          -0.10172805935 -0.10988298059 -0.11519173533 -0.12337361276 -0.13422590494 -0.096373423934
          -0.13162817061 -0.14498892426 -0.15029816329 -0.10135106742 -0.1583096087 -0.14561109245
          -0.14135362208 -0.16087082028 -0.17194615304 -0.14567144215 -0.12799055874 -0.13624939322
          -0.14155453444 -0.14983578026 -0.16080750525 -0.1226458028 -0.15819746256 -0.17170713842
          -0.17699763179 -0.12770774961 -0.18547707796 -0.17266134918 -0.16835787892 -0.18809849024
          -0.19927997887 -0.17272512615 -0.15470938385 -0.16315403581 -0.1685102582 -0.1769516021
          -0.18809174001 -0.14933937788 -0.18547020853 -0.19920013845 -0.20450301468 -0.15454129875
          -0.21285058558 -0.19994981587 -0.19562537968 -0.21552841365 -0.22680366039 -0.2000169754
          -0.18181084096 -0.19036771357 -0.19575081766 -0.20429089665 -0.21555507183 -0.17644627392
          -0.21293444932 -0.22681927681 -0.23211890459 -0.18172968924 -0.24021866918 -0.22732001543
          -0.22299815714 -0.24289955199 -0.2541590929 -0.22734771669 -0.20907969773 -0.21770621836
          -0.22305390239 -0.23164153099 -0.24293373525 -0.203758955 -0.24029174447 -0.25421220064
          -0.25951948762 -0.20907405019 -0.26753914356 -0.25465855002 -0.2503747046 -0.27020293474
          -0.28141859174 -0.25467273593 -0.23645569384 -0.24505886436 -0.25037878752 -0.2589713335
          -0.27021878958 -0.23115961254 -0.26758313179 -0.28146240115 -0.28675276041 -0.23646318913
          0.056514721364 0.070293605328 0.074457399547 0.054340384901 0.042411189526 0.071135923266
          0.090108193457 0.080672681332 0.07594384253 0.066260963678 0.054892256856 0.095167599618
          0.05816250667 0.043493442237 0.037498999387 0.089177258313 0.069011099637 0.087081678212
          0.074910566211 0.063028544188 0.053327526897 0.058242619038 0.043474268168 0.05877314508
          0.062289509922 0.058943755925 0.049995619804 0.051411297172 0.049975480884 0.044663373381
          0.039119385183 0.037960994989 0.030491121113 0.030705986544 0.027318520471 0.039334561676
          0.040776923299 0.043117787689 0.040472500026 0.033939059824 0.034947052598 0.034074228257
          0.029785702005 0.025800924748 0.024615548551 0.019098201767 0.018744653091 0.01635303162
          0.025573894382 0.025123156607 0.02661540173 0.024453302845 0.019870527089 0.020633473992
          0.020201783627 0.016869805753 0.014194812626 0.013096326962 0.0093439742923 0.00861460343
          0.0070972908288 0.01378738042 0.013278747909 0.01398863364 0.01231437549 0.0094491355121
          0.01003874559 0.0099561940879 0.0075322119519 0.0059675117955 0.0050376867875 0.0028253199998
          0.0018330767052 0.0010738651035 0.0054211835377 0.0053344769403 0.0051074717194 0.0037605927791
          0.0027219911572 0.0031677132938 0.0035986329895 0.0019072366413 0.001526674605 0.00064057606505
          5.8495919802e-05 -0.0014433482429 -0.0013519362547 0.00075569300679 5.9228433789e-12 1.0771705056e-10
          -2.6599340786e-11 -4.020988837e-12 -8.4388954158e-12 3.6516952656e-12 -4.1339254611e-13 -5.5278115527e-14
          -1.6752310581e-15 0 0 0 2.769975445e-14
        </DataArray>
        <DataArray type="Float32" Name="uy" format="ascii" RangeMin="-1.7214443684" RangeMax="0.51364952326">
          0.24620133638 0.2558042109 0.25886139274 0.22325673699 0.20543693006 0.22183588147
          0.21717832983 0.24627098441 0.2541641891 0.24031169713 0.22329071164 0.21402226388
          0.20539495349 0.21481101215 0.25380274653 0.24015253782 0.2139364332 0.21467128396
          0.26374971867 0.23351028562 0.22894231975 0.26377761364 0.22876341641 0.22900484502
          0.23335023224 0.263751477 0.22179248929 0.17858624458 0.18718092144 0.17882059515
          0.18401479721 0.19251790643 0.18423965573 0.19027125835 0.19565878808 0.18457564712
          0.19006152451 0.20446658134 0.20602400601 0.19556938112 0.21006663144 0.21157860756
          0.20098102093 0.2133205682 0.21903285384 0.19573901594 0.20116791129 0.20110046864
          0.20663100481 0.19510760903 0.20056346059 0.21353441477 0.21925851703 0.20643609762
          0.21198654175 0.19515749812 0.2006521523 0.18491193652 0.19034767151 0.16094784439
          0.16922983527 0.16113226116 0.1722266525 0.16675962508 0.18601635098 0.18752211332
          0.1773545444 0.19463708997 0.17752034962 0.18271973729 0.1768810153 0.19483044744
          0.18787735701 0.17696203291 0.16699104011 0.13063384593 0.13871625066 0.13074065745
          0.14171458781 0.13636930287 0.15522870421 0.15674471855 0.14669498801 0.16370287538
          0.14688356221 0.15199042857 0.14623695612 0.16384705901 0.15702985227 0.14636437595
          0.13649219275 0.088075004518 0.09597723186 0.088133379817 0.098911136389 0.093733943999
          0.11216469854 0.1137214303 0.10383404046 0.12047675252 0.10398064554 0.10896411538
          0.10342806578 0.12057483196 0.11388893425 0.10348555446 0.093797795475 0.034216124564
          0.042169053108 0.03420682624 0.045153737068 0.039992835373 0.058518603444 0.060169637203
          0.050118658692 0.066938430071 0.050251018256 0.055261678994 0.049759682268 0.066939875484
          0.060210835189 0.049801245332 0.039963055402 -0.029655620456 -0.021615760401 -0.029747279361
          -0.018522555009 -0.023728072643 -0.004958152771 -0.0032204017043 -0.013512246311 0.0036109720822
          -0.01336603798 -0.0082898829132 -0.013887448236 0.0035327433143 -0.0033306090627 -0.013808844611
          -0.023921921849 -0.10358234495 -0.09538051486 -0.10376511514 -0.092167034745 -0.097477890551
          -0.078253604472 -0.076429754496 -0.087052434683 -0.069443576038 -0.086889229715 -0.081685058773
          -0.08743365854 -0.069592013955 -0.076642908156 -0.087356761098 -0.097815036774 -0.18839889765
          -0.17981489003 -0.18862071633 -0.17644827068 -0.18199467659 -0.1618694216 -0.15996089578
          -0.1710870862 -0.15262523293 -0.17093196511 -0.16549141705 -0.17150963843 -0.15280869603
          -0.16021940112 -0.17142465711 -0.18239060044 -0.28466516733 -0.27563160658 -0.28491979837
          -0.27208855748 -0.27793851495 -0.25670456886 -0.25468215346 -0.26642122865 -0.24696333706
          -0.2662550807 -0.26052799821 -0.26687920094 -0.24717220664 -0.25497615337 -0.26680058241
          -0.27836155891 -0.39258253574 -0.38329827785 -0.39286470413 -0.37961670756 -0.38560798764
          -0.36385095119 -0.3617682755 -0.37384656072 -0.3538326025 -0.37364885211 -0.36775377393
          -0.37431630492 -0.35407215357 -0.36206942797 -0.37416109443 -0.38613006473 -0.51257807016
          -0.50300055742 -0.51283401251 -0.4992429316 -0.50539964437 -0.48301908374 -0.48084104061
          -0.49325978756 -0.47273626924 -0.49310025573 -0.48702207208 -0.49368840456 -0.47293964028
          -0.48113808036 -0.49359318614 -0.50584477186 -0.64411300421 -0.63410162926 -0.64430660009
          -0.63017064333 -0.63658297062 -0.6133286953 -0.61107105017 -0.62393337488 -0.60272777081
          -0.62378835678 -0.61744606495 -0.624319911 -0.60288047791 -0.6112588048 -0.62418979406
          -0.63696372509 -0.78535073996 -0.77499812841 -0.78547358513 -0.77096784115 -0.7775427103
          -0.75377607346 -0.75146746635 -0.76458376646 -0.74299401045 -0.76443809271 -0.75790584087
          -0.76489436626 -0.74306583405 -0.75149047375 -0.76472216845 -0.77782416344 -0.93418097496
          -0.92366182804 -0.93427354097 -0.91959047318 -0.92622303963 -0.90225553513 -0.89987623692
          -0.9130961895 -0.89143389463 -0.91299623251 -0.90639978647 -0.91331404448 -0.89146643877
          -0.8998721838 -0.91319161654 -0.92640560865 -1.0883206129 -1.0775530338 -1.0883800983
          -1.0734090805 -1.0801366568 -1.0558203459 -1.0533668995 -1.0667760372 -1.0448998213
          -1.0667060614 -1.0599856377 -1.0669153929 -1.0449117422 -1.0533196926 -1.0668067932
          -1.0802658796 -1.2454173565 -1.2344235182 -1.2454231977 -1.230214715 -1.23703897
          -1.2124073505 -1.209864378 -1.2234406471 -1.2013788223 -1.2234010696 -1.216599226
          -1.2235224247 -1.2013497353 -1.2098021507 -1.2234581709 -1.2370753288 -1.4040067196
          -1.3927760124 -1.4039906263 -1.3885014057 -1.3954526186 -1.3703252077 -1.367705822
          -1.3815619946 -1.3590945005 -1.3815536499 -1.3746055365 -1.3815723658 -1.359058857
          -1.3676607609 -1.3815631866 -1.3954211473 -1.5628896952 -1.5514471531 -1.5628745556
          -1.5470819473 -1.5541377068 -1.528588891 -1.5258988142 -1.5400182009 -1.5171707869
          -1.540014863 -1.5329549313 -1.5400075912 -1.5171474218 -1.5258760452 -1.5400035381
          -1.5541373491 -1.7214398384 -1.7099792957 -1.7214443684 -1.7055929899 -1.7126790285
          -1.6870702505 -1.6843729019 -1.6985224485 -1.6755942106 -1.698510766 -1.6914391518
          -1.6985377073 -1.6755882502 -1.6843415499 -1.6985032558 -1.7126755714 0.18632619083
          0.19588921964 0.18648771942 0.19953303039 0.19337120652 0.21605287492 0.21794565022
          0.20564872026 0.2263212502 0.20581588149 0.21210795641 0.20533302426 0.22657005489
          0.2183264792 0.20544034243 0.19350646436 0.2403319329 0.24287000299 0.25139987469
          0.22903274 0.23614890873 0.25164157152 0.24325178564 0.42392063141 0.40931427479
          0.42404893041 0.45758605003 0.44298222661 0.45767137408 0.40363812447 0.43728369474
          0.4125379324 0.44611871243 0.3802447021 0.3766541481 0.39468365908 0.41381821036
          0.41020366549 0.42829975486 0.36581161618 0.39935821295 0.39471694827 0.42834293842
          0.38573029637 0.4192713201 0.39456367493 0.42810490727 0.36587306857 0.39936852455
          0.37671986222 0.4101678133 0.39446085691 0.4279435575 0.4127587378 0.44631645083
          0.4844956696 0.4698575139 0.48458051682 0.46416172385 0.47297796607 0.4407390058
          0.43708413839 0.45515432954 0.42634940147 0.45523005724 0.44620254636 0.45489025116
          0.42637780309 0.43711254001 0.45481112599 0.47314345837 0.50346302986 0.48887443542
          0.50356721878 0.48317652941 0.49192893505 0.45988792181 0.45617172122 0.47420036793
          0.44556817412 0.47430169582 0.46531507373 0.47387096286 0.44562667608 0.45627236366
          0.47382342815 0.49211809039 0.51350033283 0.49900084734 0.51364952326 0.49329000711
          0.50192922354 0.47018453479 0.46641734242 0.4843608737 0.4560174942 0.48449099064
          0.47555986047 0.48397424817 0.45609986782 0.46656617522 0.48390299082 0.50217980146
          0.51185178757 0.49745345116 0.51202273369 0.49176970124 0.50027263165 0.46894308925
          0.46511608362 0.48289883137 0.45499762893 0.48308369517 0.47422841191 0.48239043355
          0.45510351658 0.46530249715 0.48236078024 0.5005184412 0.49548405409 0.48122343421
          0.49567121267 0.47555953264 0.48389476538 0.45308482647 0.44923079014 0.46682438254
          0.43933814764 0.46700695157 0.45827156305 0.46624404192 0.43946155906 0.44943219423
          0.46616640687 0.48420989513 0.46168780327 0.44771668315 0.46188244224 0.44216513634
          0.45030805469 0.42018082738 0.41637128592 0.43361198902 0.40671950579 0.4338003397
          0.42523956299 0.43298983574 0.40682306886 0.41656592488 0.43292731047 0.4506098628
          0.41026630998 0.39647826552 0.41043958068 0.39103290439 0.39908662438 0.36929854751
          0.36555433273 0.38254123926 0.35600572824 0.38275238872 0.37431925535 0.38196399808
          0.3561194241 0.36577111483 0.38195645809 0.3993358314 0.34230157733 0.32866039872
          0.34245371819 0.32329630852 0.33129873872 0.30174446106 0.29808324575 0.31489771605
          0.28855824471 0.31508156657 0.30674362183 0.31434956193 0.28866916895 0.29829227924
          0.31437048316 0.33150759339 0.25920456648 0.24577440321 0.25930583477 0.2405269295
          0.24846979976 0.21928332746 0.21575668454 0.23227368295 0.20628325641 0.23243670166
          0.22421559691 0.23179960251 0.20636430383 0.21590650082 0.23181205988 0.24861192703
          0.16295547783 0.14979751408 0.16305318475 0.14468558133 0.15250900388 0.12383154035
          0.12041225284 0.13658601046 0.11104227602 0.13673406839 0.12869457901 0.13620488346
          0.11113131791 0.12059830129 0.1362619549 0.15264856815 0.056432671845 0.043433822691
          0.056511774659 0.038405552506 0.046192351729 0.017701566219 0.014376866631 0.030372656882
          0.0049785086885 0.030504053459 0.022549714893 0.03008393757 0.0050537879579 0.014537721872
          0.030143195763 0.046294506639 -0.058048389852 -0.071021974087 -0.058011110872 -0.076016001403
          -0.068162038922 -0.096720263362 -0.099939540029 -0.084016159177 -0.10943127424 -0.083927050233
          -0.091861702502 -0.084237016737 -0.10938422382 -0.099836684763 -0.084181986749 -0.06812223047
          -0.17845667899 -0.19136579335 -0.1784388572 -0.19630397856 -0.18844348192 -0.21697296202
          -0.22013512254 -0.20428337157 -0.22967939079 -0.2042081356 -0.21210166812 -0.20443961024
          -0.22963550687 -0.22005459666 -0.20437011123 -0.18845739961 -0.30279025435 -0.31576824188
          -0.30278632045 -0.32072901726 -0.31279483438 -0.34158274531 -0.34474858642 -0.32875835896
          -0.35443580151 -0.32869195938 -0.33666402102 -0.32888013124 -0.35440027714 -0.34466287494
          -0.3288217485 -0.31281685829 -0.43026846647 -0.44342041016 -0.43026998639 -0.44843095541
          -0.44035199285 -0.46969169378 -0.47288116813 -0.45660308003 -0.4828183949 -0.4565564096
          -0.46466454864 -0.45666342974 -0.48276793957 -0.47277325392 -0.45659434795 -0.44037491083
          -0.559484303 -0.57274079323 -0.55948847532 -0.57779943943 -0.56960976124 -0.59924346209
          -0.60239434242 -0.58599770069 -0.61249363422 -0.58600002527 -0.59418207407 -0.5860158205
          -0.61247420311 -0.60235744715 -0.58599632978 -0.56963634491 -0.68890738487 -0.70213568211
          -0.6889154911 -0.70720618963 -0.69902545214 -0.72865861654 -0.73180437088 -0.71539235115
          -0.74194461107 -0.71539562941 -0.72359442711 -0.71538591385 -0.74194216728 -0.73178493977
          -0.71539974213 -0.699026227 -0.81857448816 -0.83176034689 -0.81857466698 -0.83679592609
          -0.82864660025 -0.85815578699 -0.86127632856 -0.84495300055 -0.87138581276 -0.84494704008
          -0.85311073065 -0.8449639678 -0.87138330936 -0.86128723621 -0.84496504068 -0.82865911722
          0.34310182929 0.33897688985 0.34328901768 0.33730792999 0.33981239796 0.33061867952
          0.32955336571 0.33478656411 0.32641851902 0.33478078246 0.33226531744 0.33483579755
          0.32656148076 0.32978466153 0.33480170369 0.34008395672 0.27124908566 0.27304661274
          0.27866238356 0.26371222734 0.26845186949 0.27887177467 0.27337086201 0.16123448312
          0.17166921496 0.18204379082 0.18843851984 0.17167840898 0.15492898226 0.17170470953
          0.18839226663 0.1717184782 0.181983307 0.16146479547 0.17177513242 0.15503850579
          0.11040820926 0.11825603247 0.12599828839 0.13074916601 0.11814577878 0.10537484288
          0.11813730001 0.13084770739 0.11817557365 0.1261728704 0.11035945266 0.11832948029
          0.10532335192 0.064328700304 0.070142634213 0.075578615069 0.078797668219 0.069768503308
          0.060350269079 0.069722570479 0.078944720328 0.069805033505 0.07586697489 0.064184203744
          0.070237033069 0.060260068625 0.028540410101 0.032420434058 0.035855829716 0.037697907537
          0.031939409673 0.025611320511 0.031861770898 0.037839204073 0.03196182102 0.036129511893
          0.028368087485 0.032484930009 0.025497239083 0.0070969006047 0.0092034982517 0.010509076528
          0.010838088579 0.0083183730021 0.0049469857477 0.008130742237 0.011009323411 0.0082830702886
          0.010761227459 0.0066928374581 0.0091356551275 0.0047301072627 3.2225533006e-12 -1.6964417718e-11
          2.1659913446e-12 7.8638343667e-13 -1.9697015286e-12 -2.6927867488e-12 -3.1671898177e-13 4.6477388995e-14
          5.6029120349e-15 0 0 0 -1.0233491233e-14
        </DataArray>
        <DataArray type="Float32" Name="uz" format="ascii" RangeMin="-0.10325993598" RangeMax="0.080737188458">
          0.011660913005 0.0010654141661 0.013878198341 0.0085447868332 0.0023118115496 0.0052804970182
          -0.0066200518049 -0.0013112636516 -0.015903191641 -0.013357856311 -0.0073807970621 -0.021507777274
          -0.0099874986336 -0.018465841189 0.025421831757 0.020322948694 0.014903261326 0.014074913226
          -0.0074282074347 -0.019482722506 -0.012529252097 -0.018847558647 -0.022478409111 0.017456114292
          0.020898964256 0.027089415118 0.00057996436954 -0.032526761293 -0.023509932682 -0.028412010521
          -0.028273589909 -0.023498352617 -0.028289588168 -0.024974714965 -0.021662507206 -0.031348213553
          -0.024454506114 -0.011692349799 -0.0058864774182 -0.015290155075 -0.014174471609 -0.013460179791
          -0.018817786127 -0.0047080474906 -0.0097747603431 -0.018633713946 -0.018759792671 -0.017683630809
          -0.015718899667 -0.011934136972 -0.019033351913 -0.0088667059317 -0.0092628365383 -0.016731066629
          -0.012516177259 -0.025299137458 -0.018447255716 -0.020530294627 -0.024678928778 -0.036707781255
          -0.023318305612 -0.028219426051 -0.028314197436 -0.038199536502 -0.0093045150861 0.0013636306394
          -0.011547082104 -0.00016191408213 -0.01842659153 -0.019639013335 -0.0046575474553 -0.0086361421272
          -0.020844826475 -0.032138377428 -0.015968987718 -0.04036532715 -0.022881163284 -0.027584608644
          -0.031413201243 -0.044682890177 -0.0071093053557 0.0083035742864 -0.007858723402 0.0040099420585
          -0.018191723153 -0.02166862227 0.0024985638447 -0.0087671149522 -0.025132782757 -0.03885063529
          -0.011212149635 -0.043264109641 -0.022186757997 -0.026485240087 -0.034118361771 -0.050395801663
          -0.0052437447011 0.014561203308 -0.0043645873666 0.007503752131 -0.017910506576 -0.023639030755
          0.0092336796224 -0.0092912921682 -0.029367484152 -0.045064605772 -0.0064411535859 -0.04524692893
          -0.021234279498 -0.024866674095 -0.036365225911 -0.055121347308 -0.0038858421613 0.01976829581
          -0.0011765696108 0.009927987121 -0.017659876496 -0.025634044781 0.01532902848 -0.010458016768
          -0.033595595509 -0.05066177249 -0.0017252647085 -0.046290256083 -0.01990753971 -0.022444702685
          -0.038268547505 -0.059123653919 -0.0030461840797 0.024213826284 0.0018602769123 0.011389149353
          -0.017433211207 -0.027849312872 0.021141817793 -0.012461969629 -0.038204435259 -0.056043680757
          0.0033197719604 -0.046478293836 -0.018119053915 -0.019082894549 -0.039956275374 -0.062707364559
          -0.0026229375508 0.028252910823 0.0049646901898 0.012027525343 -0.017220504582 -0.030374562368
          0.027116799727 -0.015370637178 -0.043461292982 -0.061558909714 0.0090485876426 -0.045989520848
          -0.015892788768 -0.014831996523 -0.041528429836 -0.06607992202 -0.0024756060448 0.032127697021
          0.0082390094176 0.01204776112 -0.016986114904 -0.033232349902 0.033450074494 -0.01911328733
          -0.049460146576 -0.067409470677 0.015518654138 -0.045203235 -0.013328345492 -0.0099851060659
          -0.043097291142 -0.069522477686 -0.0024105128832 0.036166671664 0.011807063594 0.011848529801
          -0.016681743786 -0.03634974733 0.040304858238 -0.023355416954 -0.056017652154 -0.073653943837
          0.022678539157 -0.044365476817 -0.010665276088 -0.0049602189101 -0.044720564038 -0.073082327843
          -0.0023684559856 0.040376327932 0.015517974272 0.01164935343 -0.01637567766 -0.039608567953
          0.047433324158 -0.027787016705 -0.062855146825 -0.08014896512 0.030109813437 -0.043410282582
          -0.0079867290333 7.4961528298e-05 -0.046218965203 -0.076425872743 -0.002302844543 0.04441254586
          0.019165692851 0.011387678795 -0.016006417572 -0.042711794376 0.05435802415 -0.032090459019