<VTKFile type="UnstructuredGrid" version="1.0" byte_order="LittleEndian" header_type="UInt64">
  <UnstructuredGrid>
    <Piece NumberOfPoints="791" NumberOfCells="973">
      <PointData>
        <DataArray type="Float32" Name="ux" format="ascii" RangeMin="-0.64701849222" RangeMax="0.57266360521">
          0.016791451722 0.059561252594 -0.037505846471 0.0089400429279 0.015197358094 -0.041495706886
          0.059139564633 0.10713339597 0.17825643718 0.17650066316 0.1230514273 0.19075411558
          0.10584614426 0.17660574615 -0.091953717172 -0.058932285756 -0.10268946737 -0.060243081301
          0.080835007131 0.19110356271 0.088927142322 0.15409219265 0.17381872237 -0.15599621832
          -0.094134919345 -0.14123699069 0.068196229637 -0.2000387907 -0.095928043127 -0.059991978109
          -0.17548683286 -0.072621740401 -0.038339424878 -0.22097882628 -0.19510887563 -0.31315681338
          -0.28677123785 -0.096769243479 0.044345550239 -0.020955799147 -0.073194496334 0.068144917488
          0.0017559594708 -0.063212163746 -0.038781438023 -0.13038603961 -0.10688148439 -0.21911349893
          -0.19352042675 0.087517559528 0.111052908 -0.19613930583 -0.1693983525 -0.30631491542
          -0.27884939313 -0.35287579894 -0.32450932264 0.04873618111 0.070411168039 -0.22220622003
          -0.11910203844 -0.085034765303 -0.24072429538 -0.33209210634 -0.11847008765 0.017072487622
          -0.045925013721 -0.085376165807 -0.15195454657 -0.2376126349 0.058531858027 -0.21416793764
          -0.32270389795 -0.36990463734 0.020771009848 -0.21942335367 -0.12167406827 -0.087887614965
          -0.23943151534 -0.32557144761 -0.12210733443 0.010894590989 -0.051925610751 -0.090423695743
          -0.15438088775 -0.23652283847 0.050255145878 -0.21331621706 -0.31775271893 -0.36352723837
          0.014672733843 -0.16563038528 -0.08007375896 -0.050321530551 -0.18354825675 -0.25937071443
          -0.078902721405 0.036098726094 -0.018006909639 -0.050128344446 -0.10822372884 -0.18099294603
          0.070899680257 -0.15933409333 -0.25300270319 -0.29254618287 0.038952611387 -0.068987041712
          -0.0027421042323 0.020110070705 -0.081873811781 -0.13966666162 -0.0013417615555 0.087762326002
          0.046191342175 0.0205365289 -0.023789860308 -0.079626977444 0.11522269994 -0.06397549808
          -0.13481539488 -0.16396304965 0.091108106077 0.067993544042 0.11892719567 0.13520120084
          0.058250810951 0.013557584025 0.11897618324 0.18916817009 0.15619079769 0.13529275358
          0.10282798856 0.058807123452 0.21068693697 0.069899611175 0.015639025718 -0.0052417977713
          0.1893799752 0.1725435257 0.21941612661 0.23373886943 0.16423229873 0.12442748249
          0.21981911361 0.28835558891 0.25567227602 0.23464329541 0.20429085195 0.16342192888
          0.30850189924 0.17143560946 0.12237878889 0.10463961214 0.28628242016 0.23461724818
          0.28315731883 0.29780685902 0.22549960017 0.18375082314 0.28367719054 0.35563698411
          0.32103472948 0.30038845539 0.26804277301 0.22463019192 0.37443855405 0.23239415884
          0.1803239435 0.16324564815 0.3506077826 0.2416010797 0.29956009984 0.31488442421
          0.23205918074 0.18295954168 0.30387654901 0.38764452934 0.34494516253 0.32389250398
          0.28337535262 0.23259320855 0.40842369199 0.24471436441 0.1816611886 0.15935003757
          0.37953442335 0.22100450099 0.2947242558 0.31640988588 0.20680376887 0.14400687814
          0.29943928123 0.40940696001 0.3535618484 0.32707926631 0.27203673124 0.20685741305
          0.43651026487 0.22183719277 0.13949872553 0.11258711666 0.39875397086 0.16849367321
          0.26469835639 0.29235801101 0.14990186691 0.067750565708 0.26941287518 0.41249889135
          0.34091454744 0.30452796817 0.23438809812 0.1489688009 0.44702729583 0.16717758775
          0.060034222901 0.024624919519 0.3993602097 0.058629527688 0.18013313413 0.21583382785
          0.035688348114 -0.068462394178 0.18733236194 0.36555728316 0.27618992329 0.23317632079
          0.14350624382 0.036311004311 0.41017895937 0.062088865787 -0.074359163642 -0.12171151489
          0.35003915429 -0.079400658607 0.060178015381 0.10557051003 -0.109927468 -0.23217616975
          0.062751054764 0.26782798767 0.16758611798 0.11251716316 0.013762040064 -0.11135017872
          0.32211101055 -0.08237798512 -0.23847489059 -0.29414138198 0.25802823901 -0.20295655727
          -0.05781795457 -0.0085737649351 -0.2347407192 -0.36189368367 -0.055295120925 0.1541107893
          0.052637208253 -0.0021043196321 -0.10591001064 -0.23441570997 0.21033623815 -0.20080322027
          -0.36304751039 -0.42479467392 0.14761789143 -0.27085894346 -0.1306783855 -0.084752693772
          -0.30036509037 -0.42524260283 -0.12670706213 0.070259146392 -0.025583915412 -0.075877666473
          -0.17688265443 -0.29748082161 0.12496774644 -0.26271593571 -0.41995286942 -0.48299849033
          0.065790034831 -0.26575744152 -0.12756834924 -0.079010844231 -0.29689490795 -0.4204916954
          -0.12435480207 0.073722116649 -0.022495631129 -0.073266468942 -0.17329798639 -0.29666152596
          0.12647290528 -0.26292401552 -0.42150720954 -0.48103016615 0.06864323467 -0.17985036969
          -0.038057029247 0.011260644533 -0.21238146722 -0.33772423863 -0.037852793932 0.16466848552
          0.068112701178 0.012875467539 -0.086718633771 -0.21174558997 0.22187323868 -0.17936342955
          -0.33781191707 -0.39897191525 0.1629909426 -0.030971495435 0.11810645461 0.16866737604
          -0.061441548169 -0.19185723364 0.11986756325 0.33083587885 0.23012202978 0.17102245986
          0.067989245057 -0.061118960381 0.39133894444 -0.027860833332 -0.19048596919 -0.2540127933
          0.32956579328 0.15178371966 0.29941141605 0.34982311726 0.12060125172 -0.0094521362334
          0.30168104172 0.51163870096 0.41179707646 0.35215818882 0.25118947029 0.12163023651
          0.57266360521 0.15283808112 -0.0089357541874 -0.071471169591 0.51052737236 -0.081478610635
          -0.010434654541 0.032887693495 -0.11909539998 -0.18641959131 -0.035644359887 0.083245292306
          0.040368627757 -0.018298923969 -0.052351467311 -0.13569754362 0.13236291707 -0.13338668644
          -0.21800974011 -0.23871147633 0.11293812841 0.0046435305849 0.10573648661 0.0014301049523
          0.0075517729856 -0.075342088938 -0.10013710707 -0.16129408777 -0.14682126045 -0.12666459382
          -0.12129817903 -0.11281020939 -0.11022774875 -0.10571917892 -0.15179541707 -0.11912611872
          -0.17001087964 -0.12478091568 -0.12374801934 -0.090815320611 -0.11040251702 -0.11024408787
          -0.098056353629 -0.10579269379 -0.11164803803 -0.10456956923 -0.133147493 -0.11345376074
          -0.15211957693 -0.12081348896 -0.088423669338 -0.09862614423 -0.14350377023 -0.11755165458
          -0.17099618912 -0.12969109416 -0.18060198426 -0.13263574243 -0.099922910333 -0.10157230496
          -0.021756231785 -0.03177946806 -0.032968580723 -0.022854985669 -0.015603086911 -0.030920751393
          -0.039853364229 -0.0366660133 -0.031435471028 -0.029413325712 -0.024317745119 -0.043859552592
          -0.02496467717 -0.01974969916 -0.016007298604 -0.041467420757 0.11513697356 0.084143780172
          0.075107201934 0.11805453151 0.14572644234 0.083314798772 0.048216640949 0.064516216516
          0.074687309563 0.092389568686 0.11447189003 0.035467196256 0.10625395924 0.13565175235
          0.15299206972 0.045003384352 0.2387739718 0.19071249664 0.17256170511 0.249571383
          0.29277163744 0.18895067275 0.12230956554 0.15407237411 0.17079600692 0.20583370328
          0.24705526233 0.10226155818 0.23317492008 0.28812211752 0.31069537997 0.12007789314
          0.31054112315 0.23842561245 0.21202018857 0.32864233851 0.39271792769 0.2383300066
          0.1344383657 0.18427495658 0.21253071725 0.26356160641 0.32921206951 0.10647755116
          0.31177529693 0.39391246438 0.42419978976 0.13547125459 0.33595424891 0.24360498786
          0.21112839878 0.35780695081 0.43940010667 0.24170039594 0.10823502392 0.17291679978
          0.20764358342 0.2748015523 0.35749056935 0.072242863476 0.33632054925 0.44240111113
          0.48155114055 0.11125086248 0.28958913684 0.18299999833 0.14583645761 0.31516042352
          0.40999421477 0.18014481664 0.02134437114 0.098792150617 0.14007999003 0.21925246716
          0.31642788649 -0.02018269524 0.29268619418 0.41690400243 0.46045666933 0.028316639364
          0.19152250886 0.076589025557 0.039772298187 0.21553888917 0.31442779303 0.074998378754
          -0.094310119748 -0.012014445849 0.034337107092 0.11481790245 0.21828636527 -0.13894665241
          0.19599455595 0.32291039824 0.36651834846 -0.08594878763 0.12244592607 -0.0031958080363
          -0.041987482458 0.14622636139 0.2541616559 -0.0031006161589 -0.18327493966 -0.097768217325
          -0.044354420155 0.037720184773 0.14803339541 -0.23368319869 0.12451691926 0.25789967179
          0.30542942882 -0.17810705304 0.13177131116 -0.013161362149 -0.05918077752 0.15850380063
          0.28252968192 -0.01494801417 -0.21883371472 -0.12167120725 -0.061977364123 0.033604171127
          0.15712937713 -0.27836033702 0.12728181481 0.27877399325 0.33797973394 -0.21770969033
          0.17207399011 0.0077992356382 -0.046593733132 0.20318129659 0.34760856628 0.0059519046918
          -0.22128200531 -0.11348177493 -0.048421189189 0.060381397605 0.20116786659 -0.28820207715
          0.16506625712 0.34021836519 0.41081491113 -0.22314199805 0.19271849096 0.025931466371
          -0.029575118795 0.2253715843 0.37207567692 0.026042161509 -0.19950509071 -0.093915320933
          -0.026439135894 0.080740123987 0.22321653366 -0.26763921976 0.1872933805 0.3642333746
          0.43780019879 -0.20539391041 0.17549356818 0.023018810898 -0.028046123683 0.20696401596
          0.34163567424 0.023017236963 -0.18697220087 -0.088342547417 -0.0270782765 0.073648132384
          0.20476011932 -0.25020986795 0.17009882629 0.334918648 0.40088370442 -0.19113053381
          0.14659306407 -0.0034606859554 -0.054434213787 0.17622582614 0.30882701278 -0.0032477700152
          -0.20884653926 -0.11321880668 -0.052291002125 0.046188723296 0.175069049 -0.27094006538
          0.14254255593 0.30343300104 0.36798375845 -0.21274510026 0.098621487617 -0.049792330712
          -0.098653323948 0.12752860785 0.25690048933 -0.051830001175 -0.2593202889 -0.16074749827
          -0.10133175552 -0.0017491416074 0.12546814978 -0.31985706091 0.093941830099 0.25365415215
          0.31670486927 -0.25896275043 0.036029167473 -0.11701776832 -0.16657625139 0.065325394273
          0.19869434834 -0.12013234198 -0.33327582479 -0.23133836687 -0.1720610261 -0.068080246449
          0.06288497895 -0.39424952865 0.028433129191 0.19376552105 0.25792396069 -0.33125314116
          -0.032418586314 -0.19054637849 -0.24212476611 -0.00098716944922 0.13681814075 -0.19236434996
          -0.41501876712 -0.30904766917 -0.24648350477 -0.13996842504 -0.0028226948343 -0.47837743163
          -0.037309590727 0.13307189941 0.19994835556 -0.41312900186 -0.10591815412 -0.26918405294
          -0.32320833206 -0.073205396533 0.068934388459 -0.27120986581 -0.50143164396 -0.39219248295
          -0.32688874006 -0.21619318426 -0.075242519379 -0.56793451309 -0.11026136577 0.06640445441
          0.13455168903 -0.49968749285 -0.18471086025 -0.34815165401 -0.40279060602 -0.15119706094
          -0.0082796411589 -0.3487033844 -0.58026701212 -0.47049424052 -0.40423554182 -0.29432824254
          -0.15080350637 -0.64701849222 -0.18563224375 -0.0088940151036 0.058280155063 -0.5788398385
          -0.062544055283 -0.031210685149 0.0013086705003 -0.095647327602 -0.12870629132 -0.062410131097
          0.00024700490758 -0.012657884508 -0.05980284512 -0.062996178865 -0.11347520351 0.037100613117
          -0.12108004838 -0.16247810423 -0.16653302312 0.038368448615 -0.000886776892 0.084989324212
          -0.010362080298 0.005796330981 -0.071315512061 -0.097370833158 -0.14622181654 0.25923997164
          0.3017436862 0.2655313611 0.16154785454 0.17717142403 0.15737064183 0.10072489828
          0.036596462131 0.026109999046 -0.057923797518 -0.0521171242 -0.089337110519 0.03818288818
          0.20840851963 0.24485215545 0.21082107723 0.11196309328 0.12927603722 0.11562531441
          0.055836454034 -0.009314195253 -0.01767308265 -0.10280511528 -0.094491019845 -0.13361550868
          -0.00017398939235 0.1021310389 0.1321259886 0.10103097558 0.019804149866 0.033233597875
          0.025292724371 -0.02910012193 -0.081243313849 -0.090549580753 -0.16166554391 -0.15405420959
          -0.18819621205 -0.072678335011 0.020769562572 0.044287711382 0.019487112761 -0.045093018562
          -0.035236503929 -0.038319416344 -0.084868974984 -0.1260432303 -0.13283288479 -0.1887511462
          -0.1802688092 -0.20890547335 -0.11482492834 0.014782711864 0.026065746322 0.005682636518
          -0.03430127725 -0.023456281051 -0.025410823524 -0.055233806372 -0.08146507293 -0.085219055414
          -0.11570228636 -0.11691302806 -0.13010340929 -0.077255167067 5.6041622731e-11 1.5105714457e-09
          -1.4187141739e-10 1.4394859436e-11 -3.1885181995e-11 -3.7072216824e-11 -9.5289349328e-12 -3.7670040698e-13
          -4.3732575341e-14 0 0 0 7.0002590692e-14
        </DataArray>
        <DataArray type="Float32" Name="uy" format="ascii" RangeMin="-1.8144655228" RangeMax="1.2553676367">
          0.16229195893 0.097466886044 0.068057484925 0.029141072184 -0.12271951139 -0.17095321417
          -0.1612841934 0.1641523838 0.11123014241 0.099205508828 0.028868693858 -0.15867075324
          -0.12423955649 -0.078675694764 0.10914409906 0.09736970067 -0.15100254118 -0.076114840806
          0.026747435331 -0.014710557647 -0.19364728034 0.025656888261 -0.19571129978 -0.18898904324
          -0.014472086914 0.021578919142 0.035378661007 -1.1086697578 -1.0034162998 -1.1079354286
          -1.0535504818 -0.94673442841 -1.0537283421 -0.96168506145 -0.9041877389 -1.0257138014
          -0.96891844273 -0.79413378239 -0.76958423853 -0.89871406555 -0.73717045784 -0.71338993311
          -0.84165716171 -0.69098097086 -0.63525217772 -0.89831095934 -0.84086847305 -0.831772089
          -0.77366572618 -0.89751547575 -0.84093058109 -0.68885672092 -0.63319343328 -0.76347613335
          -0.70763999224 -0.89225244522 -0.83494013548 -1.026258111 -0.97146689892 -1.0858271122
          -0.98220443726 -1.0846054554 -0.94234746695 -1.0035910606 -0.77960705757 -0.7573928237
          -0.88080710173 -0.68065804243 -0.88019430637 -0.81503599882 -0.87994134426 -0.67645734549
          -0.74901342392 -0.87378132343 -1.004535675 -0.97353154421 -0.87500661612 -0.9733620882
          -0.83432877064 -0.89523786306 -0.67839503288 -0.65761595964 -0.77750986814 -0.58279520273
          -0.77500611544 -0.71150559187 -0.77754813433 -0.57789987326 -0.64703398943 -0.76797783375
          -0.89666569233 -0.78603357077 -0.69798368216 -0.78450930119 -0.66442710161 -0.71794474125
          -0.52610266209 -0.5053756237 -0.61139452457 -0.44110810757 -0.61196500063 -0.55640232563
          -0.60928362608 -0.43704161048 -0.49948874116 -0.60672616959 -0.71584701538 -0.50881177187
          -0.44073224068 -0.50766736269 -0.41595906019 -0.4558506012 -0.30890220404 -0.29146003723
          -0.37309813499 -0.24353684485 -0.37457844615 -0.33390408754 -0.36990860105 -0.24248322845
          -0.29098904133 -0.37255063653 -0.45349511504 -0.17434550822 -0.12417401373 -0.17552281916
          -0.10317108035 -0.13395999372 -0.021272776648 -0.008020776324 -0.072578959167 0.030420549214
          -0.072407245636 -0.040437154472 -0.072366580367 0.02999442257 -0.0083567649126 -0.070157080889
          -0.13613002002 0.16450218856 0.21046933532 0.16148985922 0.22951710224 0.20127698779
          0.30891954899 0.32128179073 0.25806394219 0.35831820965 0.2591150403 0.28912320733
          0.25798490644 0.35665225983 0.31743568182 0.25889590383 0.19621695578 0.47554707527
          0.52362322807 0.47273951769 0.54422301054 0.5135627985 0.62509971857 0.63528835773
          0.5728276372 0.67684662342 0.57445847988 0.60598468781 0.56952089071 0.67575246096
          0.63576239347 0.57386350632 0.50798767805 0.71069359779 0.76825869083 0.70842325687
          0.79043930769 0.75292670727 0.88727265596 0.89863991737 0.82659631968 0.94725066423
          0.82742112875 0.86294269562 0.82254886627 0.94630581141 0.89852416515 0.82336938381
          0.75023424625 0.84050220251 0.91250264645 0.83600777388 0.94279998541 0.89713191986
          1.0650969744 1.0792428255 0.98580801487 1.143147707 0.98888504505 1.0355716944
          0.98104566336 1.1425330639 1.0798664093 0.98625600338 0.8881289959 0.85571748018
          0.95076698065 0.85202050209 0.99027007818 0.92874014378 1.1521593332 1.1717338562
          1.0482279062 1.2552365065 1.0511058569 1.1129716635 1.0427420139 1.2553676367
          1.1738009453 1.0481439829 0.91966319084 0.73540306091 0.85726225376 0.73208397627
          0.90608775616 0.82667392492 1.1132748127 1.1399059296 0.9829865098 1.2434287071
          0.98429763317 1.0629739761 0.97653740644 1.2428773642 1.1397587061 0.97973996401
          0.8216663599 0.48623371124 0.63009172678 0.48451948166 0.68661725521 0.59530377388
          0.92500889301 0.95554751158 0.77454560995 1.0737411976 0.77735620737 0.86900019646
          0.76993608475 1.0748569965 0.96001136303 0.77607309818 0.59098482132 0.16979236901
          0.31924498081 0.1705827266 0.37748301029 0.28351733088 0.61988151073 0.65149509907
          0.46822026372 0.77064192295 0.46926632524 0.56413924694 0.46440622211 0.77432799339
          0.658634305 0.47034317255 0.28204840422 -0.17051891983 -0.023283543065 -0.16937667131
          0.031146753579 -0.059746794403 0.26583206654 0.2947243154 0.12053740025 0.40759703517
          0.12192836404 0.21335081756 0.1176963672 0.41273674369 0.30510127544 0.1221454218
          -0.059529174119 -0.53945285082 -0.394307971 -0.53600794077 -0.34063449502 -0.43150961399
          -0.10678619891 -0.077163241804 -0.25136423111 0.037357587367 -0.25009718537 -0.16007094085
          -0.25376519561 0.041751872748 -0.068116314709 -0.25129643083 -0.42668649554 -0.95362889767
          -0.80457079411 -0.95067101717 -0.74863862991 -0.84155112505 -0.51036930084 -0.47876527905
          -0.65867549181 -0.36372861266 -0.65755718946 -0.56482487917 -0.65971750021 -0.36026206613
          -0.47201159596 -0.65683925152 -0.83901160955 -1.3925982714 -1.2390067577 -1.392771244
          -1.1802763939 -1.2745323181 -0.93220752478 -0.89620864391 -1.0853376389 -0.77954369783
          -1.0850111246 -0.99038887024 -1.0854226351 -0.77787643671 -0.89471191168 -1.0850307941
          -1.2756304741 -1.8144655228 -1.6605761051 -1.8136080503 -1.6021797657 -1.6974498034
          -1.3516186476 -1.3148247004 -1.5061671734 -1.1973435879 -1.5062714815 -1.4115146399
          -1.5053845644 -1.1972614527 -1.3153088093 -1.5063225031 -1.6969094276 -0.68006485701
          -0.63481813669 -0.68208605051 -0.61399370432 -0.64207035303 -0.5407859087 -0.53344929218
          -0.59000402689 -0.49418702722 -0.58681166172 -0.55503249168 -0.59172683954 -0.48923864961
          -0.52230387926 -0.58113014698 -0.64760857821 -0.22074142098 -0.23086848855 -0.2506454885
          -0.19109590352 -0.20796869695 -0.24813750386 -0.22686105967 0.059754036367 0.040604475886
          0.057932998985 -0.030439972878 -0.040957514197 -0.034059520811 0.032592095435 -0.043285042048
          0.046184152365 -0.034468349069 -0.0019015518483 -0.0024249784183 0.0219947882 -0.058796688914
          -0.057410307229 -0.049080960453 -0.024576535448 -0.06692763418 0.019852885976 -0.05021674186
          0.0048576868139 -0.056563604623 0.024001147598 -0.048091888428 -0.029021637514 -0.069947093725
          -0.012107831426 -0.06362015754 0.01940362528 -0.049134556204 0.044916301966 -0.039819020778
          -0.094201885164 -0.088565312326 -0.097253009677 -0.082235656679 -0.084670491517 -0.075143620372
          -0.072825133801 -0.082130819559 -0.068397425115 -0.080856688321 -0.074211545289 -0.081980168819
          -0.068022102118 -0.07050780952 -0.074767544866 -0.092051610351 -0.1344923526 -0.10379640013
          -0.13492299616 -0.091057516634 -0.10847819597 -0.046633783728 -0.042789731175 -0.074828796089
          -0.022649532184 -0.073847301304 -0.053663276136 -0.075508087873 -0.018499398604 -0.034242998809
          -0.068756960332 -0.11052518338 -0.10975299776 -0.058002315462 -0.10908869654 -0.038934040815
          -0.07012822479 0.041302893311 0.051893107593 -0.0076243872754 0.089047685266 -0.0079693188891
          0.023838380352 -0.0059187971056 0.091578945518 0.056465916336 -0.0057143485174 -0.067955926061
          -0.049040481448 0.027550620958 -0.045971497893 0.055587418377 0.0085536893457 0.1757516712
          0.19114017487 0.10009270161 0.25066900253 0.10173378885 0.14834818244 0.10106043518
          0.25261560082 0.1956320703 0.10194408894 0.010617563501 0.0041884290986 0.1031723544
          0.0070395818911 0.13794608414 0.075083509088 0.29677146673 0.31629690528 0.2002003938
          0.39320904016 0.19954738021 0.25956448913 0.19865046442 0.39597028494 0.31995180249
          0.1959502697 0.080915302038 0.013093847781 0.12627498806 0.015557861887 0.16747559607
          0.094985641539 0.35517218709 0.37985542417 0.23977801204 0.4717335403 0.23922207952
          0.31027558446 0.23589403927 0.47332552075 0.38124075532 0.23447279632 0.098227486014
          -0.03169669956 0.085138320923 -0.033046346158 0.13038930297 0.056628063321 0.32473665476
          0.35122039914 0.20316240191 0.44757854939 0.20396864414 0.27802121639 0.19961223006
          0.44649410248 0.35091385245 0.20111007988 0.053833331913 -0.18063768744 -0.056670378894
          -0.18385133147 -0.0065791248344 -0.083974517882 0.19889701903 0.22969269753 0.069468796253
          0.32970884442 0.070900738239 0.14993157983 0.066288374364 0.32719397545 0.22623175383
          0.070158772171 -0.090736985207 -0.41109520197 -0.26729547977 -0.4147555232 -0.20882713795
          -0.29639568925 0.025219403207 0.062010973692 -0.12088733166 0.17279702425 -0.12022488564
          -0.029914854094 -0.12110709399 0.17062827945 0.058539826423 -0.11762670428 -0.30393540859
          -0.62416529655 -0.45811796188 -0.62436014414 -0.39271602035 -0.49449181557 -0.12466963381
          -0.084215462208 -0.29022204876 0.040763288736 -0.29040390253 -0.1867222935 -0.28815436363
          0.042303379625 -0.08114618808 -0.28564620018 -0.49448546767 -0.72582167387 -0.55458879471
          -0.72317957878 -0.49040803313 -0.5944532752 -0.21984444559 -0.18060655892 -0.38533630967
          -0.05517038703 -0.3872102797 -0.2814181447 -0.38310572505 -0.051779843867 -0.1740834713
          -0.38224732876 -0.59009480476 -0.69459211826 -0.53904169798 -0.69376534224 -0.48032739758
          -0.57409495115 -0.23065823317 -0.19190740585 -0.38413488865 -0.07608948648 -0.38465872407
          -0.28846773505 -0.38051944971 -0.074901364744 -0.18981684744 -0.38010945916 -0.57248938084
          -0.59607714415 -0.44371366501 -0.59558004141 -0.38435074687 -0.4772016108 -0.1414155215
          -0.10545665026 -0.2925978899 0.0091721853241 -0.29171568155 -0.1965546608 -0.29129308462
          0.011584223248 -0.10110733658 -0.28808188438 -0.47864803672 -0.44892686605 -0.29731598496
          -0.44903963804 -0.23902852833 -0.33158358932 0.005714148283 0.040809132159 -0.14520597458
          0.156537503 -0.14561381936 -0.050352342427 -0.14563162625 0.15819367766 0.04399164021
          -0.1434622556 -0.3334364295 -0.30243051052 -0.14724646509 -0.3039816916 -0.086823485792
          -0.18208779395 0.16270901263 0.19758754969 0.0079513611272 0.3160136342 0.0084974952042
          0.10450682789 0.0067967078649 0.31779971719 0.20088657737 0.0098513681442 -0.18543022871
          -0.15425342321 0.0068961745128 -0.15591929853 0.070648021996 -0.028970364481 0.32957366109
          0.36545687914 0.16771048307 0.48855027556 0.16892713308 0.26904812455 0.16698296368
          0.49054938555 0.370431602 0.17201541364 -0.033094242215 0.010900181718 0.17769581079
          0.010184222832 0.24253319204 0.13945995271 0.51220411062 0.55108571053 0.34479814768
          0.67919957638 0.3453694582 0.44898957014 0.3445417881 0.67884373665 0.55259531736
          0.34571474791 0.13713136315 0.18010140955 0.34729790688 0.17936404049 0.41172397137
          0.30853760242 0.6825029254 0.72130185366 0.51434528828 0.85056275129 0.51432800293
          0.61813426018 0.51354950666 0.85071837902 0.72231954336 0.51461088657 0.30714508891
          0.24334585667 0.17840544879 0.2423927933 0.15288457274 0.19319216907 0.051988206804
          0.039423998445 0.11594066024 -0.0099777942523 0.11440768093 0.073116220534 0.11620406061
          -0.013311072253 0.032759547234 0.11130974442 0.19362056255 -0.04103441909 -0.058457572013
          -0.1068803519 0.02683872357 -0.018293021247 -0.10787381977 -0.061479847878 0.087239980698
          0.2049254626 0.32227912545 0.39353239536 0.20460650325 0.019524216652 0.20420880616
          0.38842877746 0.20315788686 0.31251046062 0.091034002602 0.20075067878 0.022613927722
          0.14640522003 0.25625106692 0.36933252215 0.44140315056 0.25925803185 0.08128811419
          0.25961643457 0.44090628624 0.25961485505 0.3692111969 0.14866124094 0.25750905275
          0.08223413676 0.16100035608 0.25554820895 0.34821510315 0.40779975057 0.25524041057
          0.1032301411 0.25405088067 0.40667265654 0.25215244293 0.34452468157 0.15419659019
          0.24691069126 0.099938422441 0.10761595517 0.17977882922 0.25404316187 0.3011803627
          0.17975723743 0.0601099208 0.17904497683 0.30071532726 0.17794646323 0.25265365839
          0.10059157014 0.1751331985 0.057383943349 0.027072269469 0.073575899005 0.11756847054
          0.13979001343 0.069171205163 -0.0045649539679 0.06730555743 0.13636785746 0.067455284297
          0.11005636305 0.025909073651 0.069262899458 -0.0040579074994 3.0083123492e-11 7.9666127861e-11
          -3.4824428063e-11 8.5814749404e-12 2.3557964607e-11 -1.28739042e-11 -6.5516570034e-13 2.5122844343e-12
          -4.9620360989e-13 0 0 0 1.7890411375e-12
        </DataArray>
        <DataArray type="Float32" Name="uz" format="ascii" RangeMin="-0.32160842419" RangeMax="0.58191817999">
          -0.14871717989 -0.10165352374 -0.16194753349 -0.10806529969 -0.054227992892 -0.066554307938
          -0.011048891582 -0.090081349015 -0.023594429716 -0.024872919545 -0.039316736162 0.069948971272
          0.00086989509873 0.028697626665 -0.22299973667 -0.17726807296 -0.11125096679 -0.11876473576
          -0.060433723032 0.021748509258 0.022384870797 -0.0047188056633 0.075398609042 -0.12992630899
          -0.1672667712 -0.22856292129 -0.073859214783 0.14966653287 0.14669854939 0.15512014925
          0.13845612109 0.1486762464 0.16547602415 0.13888934255 0.11845013499 0.13929897547
          0.10631830245 0.13034965098 0.13682417572 0.14202657342 0.12089770287 0.15003779531
          0.15147006512 0.12610124052 0.11587061733 0.13741755486 0.12816649675 0.12894284725
          0.099914431572 0.14779731631 0.17414723337 0.11933416873 0.084177143872 0.12044166774
          0.071209460497 0.12810303271 0.080831743777 0.15418632329 0.18017266691 0.16807976365
          0.14734993875 0.1454243511 0.16684387624 0.18441793323 0.14069138467 0.11793382466
          0.1328779012 0.13064295053 0.14993526042 0.16244602203 0.11683216691 0.15307417512
          0.17494913936 0.18666866422 0.12580604851 0.17766177654 0.14833697677 0.13111434877
          0.19326509535 0.22063438594 0.16082780063 0.1136129573 0.12935112417 0.15544947982
          0.16635160148 0.20060579479 0.091728687286 0.20174323022 0.23472799361 0.24269510806
          0.098366163671 0.17577128112 0.14226332307 0.10754598677 0.21229712665 0.24528813362
          0.18133984506 0.11017445475 0.12196402997 0.18255290389 0.17904831469 0.23701791465
          0.064483843744 0.25239631534 0.29353427887 0.29067412019 0.064381740987 0.16880042851
          0.12862031162 0.075551480055 0.22419378161 0.26761367917 0.18637612462 0.09256978333
          0.10467006266 0.1912881881 0.18063011765 0.26075032353 0.028228258714 0.28653332591
          0.34065011144 0.33321669698 0.02251954563 0.1757209748 0.12503039837 0.065356366336
          0.23533254862 0.28830447793 0.18444505334 0.075006194413 0.093929074705 0.18731468916
          0.18219290674 0.27224454284 0.0045850481838 0.29798126221 0.36455503106 0.36015045643
          0.001026247628 0.19458024204 0.13446418941 0.084439098835 0.24275961518 0.30210158229
          0.17844282091 0.06382099539 0.094576068223 0.17224937677 0.18469928205 0.27165439725
          0.0025250327308 0.28538924456 0.35971033573 0.36546382308 0.011322625913 0.21445940435
          0.15189479291 0.11701862514 0.24389906228 0.30179098248 0.17455810308 0.071684099734
          0.10825588554 0.16039068997 0.18700261414 0.25893500447 0.027468597516 0.25995543599
          0.33098819852 0.34643736482 0.045986779034 0.23135571182 0.17698484659 0.15896774828
          0.2428753227 0.29073697329 0.17946448922 0.10265865922 0.13749980927 0.16243113577
          0.19613823295 0.24470756948 0.079367808998 0.23525585234 0.29274967313 0.31378504634
          0.10102593899 0.24250921607 0.20706142485 0.20308320224 0.24083709717 0.27095121145
          0.19290088117 0.15040941536 0.17832402885 0.17666293681 0.21009330451 0.23195602
          0.14709049463 0.2164054364 0.25449115038 0.27573296428 0.16763910651 0.25973573327
          0.24532432854 0.26283204556 0.23645432293 0.24619972706 0.21140877903 0.20702804625
          0.22916929424 0.1947915554 0.22781771421 0.21711649001 0.22936405241 0.19539539516
          0.20705188811 0.2263315171 0.25125494599 0.2780123055 0.28522649407 0.32634362578