<VTKFile type="UnstructuredGrid" version="1.0" byte_order="LittleEndian" header_type="UInt64">
  <UnstructuredGrid>
    <Piece NumberOfPoints="791" NumberOfCells="973">
      <PointData>
        <DataArray type="Float32" Name="ux" format="ascii" RangeMin="-1.0252579451" RangeMax="0.73087900877">
          0.06338442862 0.064428985119 0.068326607347 0.062039285898 0.061560153961 0.067425176501
          0.06321003288 0.060741815716 0.060405474156 0.058716125786 0.058832541108 0.058526165783
          0.058917053044 0.057988137007 0.069194115698 0.065536856651 0.067251048982 0.064774982631
          0.065457850695 0.05928843841 0.065421290696 0.063003987074 0.062887497246 0.072835385799
          0.067958988249 0.073049746454 0.059957779944 0.14368072152 0.14317500591 0.14326414466
          0.10947210342 0.10897446424 0.10890570283 0.14360229671 0.10960109532 0.14389324188
          0.10989819467 0.14305128157 0.14213362336 0.14265848696 0.10897623003 0.10776361823
          0.10838408768 0.14290912449 0.10886631161 0.14322543144 0.10914805532 0.14366440475
          0.10980018228 0.142019853 0.10752056539 0.14377139509 0.11007356644 0.14417786896
          0.11059403419 0.14410620928 0.11036451906 0.14257486165 0.10809857398 0.18192182481
          0.18157288432 0.18161262572 0.18190734088 0.18210980296 0.18150305748 0.18081527948
          0.18120007217 0.18139757216 0.18162822723 0.18196880817 0.18071350455 0.18205212057
          0.18237450719 0.18230605125 0.18110822141 0.22333261371 0.2230822742 0.22311113775
          0.22331598401 0.22346690297 0.22302718461 0.22256068885 0.22282658517 0.22294123471
          0.22311723232 0.22334900498 0.22250410914 0.22338826954 0.22361439466 0.2235866487
          0.22277112305 0.26669281721 0.26653707027 0.26654821634 0.26669359207 0.26680228114
          0.26648870111 0.26617532969 0.26636937261 0.26640981436 0.26655831933 0.26671290398
          0.26616418362 0.26671513915 0.26689246297 0.26689454913 0.26634129882 0.31088700891
          0.31079235673 0.31077921391 0.31091848016 0.3110012114 0.31074520946 0.31051665545
          0.31067639589 0.31065386534 0.3108137548 0.31092768908 0.31053930521 0.31088387966
          0.31106108427 0.31109207869 0.31065669656 0.35477757454 0.3547629416 0.35473051667
          0.35484868288 0.35489434004 0.35472226143 0.35460117459 0.35471427441 0.35462459922
          0.35478359461 0.35485884547 0.35467374325 0.3547860682 0.35496014357 0.35499793291
          0.35472291708 0.39718794823 0.39735260606 0.39734375477 0.397277385 0.3971991539
          0.39732059836 0.39740103483 0.3974326551 0.39723873138 0.39733654261 0.3972992897
          0.39756372571 0.39722749591 0.39729464054 0.39728391171 0.39753624797 0.43738487363
          0.43771347404 0.43773585558 0.43747591972 0.4372689724 0.437679708 0.43794748187
          0.43790283799 0.43762296438 0.43765565753 0.4375038743 0.43818983436 0.43744060397
          0.43738716841 0.43732431531 0.43810346723 0.47477039695 0.47524484992 0.47530990839
          0.47484925389 0.47451493144 0.47520434856 0.47565129399 0.47553512454 0.47517520189
          0.47515076399 0.4748839438 0.4759734869 0.47483944893 0.47466319799 0.47453698516
          0.4758349359 0.50902730227 0.5096693635 0.50979274511 0.50907218456 0.50860214233
          0.50962686539 0.51030153036 0.51008027792 0.50965338945 0.5095179677 0.50911581516
          0.51070058346 0.50910490751 0.50875985622 0.50856488943 0.51050031185 0.54016065598
          0.54098588228 0.54117548466 0.54016345739 0.53952693939 0.54093939066 0.5418689847
          0.54153084755 0.5410296917 0.54076856375 0.54020470381 0.54233878851 0.54023969173
          0.53969430923 0.53941380978 0.54207158089 0.56826466322 0.56924891472 0.56949782372
          0.56822800636 0.56744277477 0.56921809912 0.57036745548 0.56991571188 0.56937664747
          0.56898015738 0.56827676296 0.57089090347 0.56837183237 0.5676202178 0.56725764275
          0.57056123018 0.59376013279 0.59486663342 0.59518140554 0.59366035461 0.59275019169
          0.59483069181 0.59618878365 0.59562647343 0.5950576067 0.59453856945 0.59369939566
          0.59674543142 0.59384119511 0.59290713072 0.59248179197 0.59636759758 0.6173132658
          0.61846917868 0.61882758141 0.61716252565 0.61619341373 0.61843287945 0.61990487576
          0.61927640438 0.6187146306 0.61810833216 0.61719506979 0.6204624176 0.6173786521
          0.61632025242 0.61585134268 0.62006258965 0.63957631588 0.64072751999 0.64110612869
          0.63938331604 0.63838487864 0.64069998264 0.64221280813 0.64154320955 0.64101928473
          0.64035522938 0.63940793276 0.64274656773 0.63962471485 0.63848680258 0.63799595833
          0.6423381567 0.66136038303 0.66255033016 0.662961483 0.66112905741 0.66008216143
          0.66253435612 0.66414284706 0.66341072321 0.6629036665 0.66215461493 0.66114449501
          0.66466516256 0.66138976812 0.66014224291 0.65963041782 0.66422837973 0.68317204714
          0.68440490961 0.68483519554 0.6829084754 0.68182379007 0.6843791604 0.68609899282
          0.68530535698 0.68477964401 0.68397933245 0.68290984631 0.68663406372 0.68316906691
          0.6818524003 0.68132817745 0.68615740538 0.70514190197 0.70641672611 0.70685166121
          0.70487946272 0.70376157761 0.70640861988 0.70819187164 0.70735859871 0.70682388544
          0.70598477125 0.70488405228 0.70873332024 0.70515078306 0.70378500223 0.70324403048
          0.70822525024 0.72723668814 0.72852420807 0.72895377874 0.72697454691 0.7258502841
          0.72853666544 0.73034363985 0.72948980331 0.72896635532 0.72810304165 0.72698694468
          0.73087900877 0.72725725174 0.72586637735 0.72532778978 0.73034983873 0.072006694973
          0.074950292706 0.070220641792 0.078113228083 0.076516754925 0.083357959986 0.082248263061
          0.078074425459 0.087260790169 0.079587392509 0.083394527435 0.076427266002 0.089246883988
          0.087307043374 0.082343928516 0.071937471628 0.071303144097 0.06912586838 0.074995465577
          0.067949190736 0.072497442365 0.077986270189 0.077197209001 0.06512157619 0.064684301615
          0.064482174814 0.049495242536 0.049659505486 0.049349680543 0.065471418202 0.04998696968
          0.066065728664 0.05009137094 0.064464613795 0.063445903361 0.064233526587 0.0496664159
          0.049397382885 0.049672760069 0.063767835498 0.049315750599 0.064866289496 0.049829546362
          0.065485954285 0.050102137029 0.063749603927 0.049650348723 0.064947813749 0.04979095608
          0.066209450364 0.050469018519 0.066623188555 0.050611078739 0.064113333821 0.049577694386
          0.026023376733 0.026512535289 0.026414908469 0.026350490749 0.026153985411 0.026470949873
          0.026720942929 0.0267744679 0.026240909472 0.026512933895 0.026430720463 0.027154132724
          0.026198316365 0.026436075568 0.026442911476 0.027001190931 -0.0050847954117 -0.0042183278129
          -0.0041746017523 -0.0048696277663 -0.0054243970662 -0.0042506386526 -0.0034309739713 -0.0036690032575
          -0.0043145692907 -0.0043552564457 -0.0047955382615 -0.0028719629627 -0.0049107382074 -0.0051564504392
          -0.0053331842646 -0.0031901802868 -0.042875710875 -0.041622620076 -0.041427485645 -0.042777445167
          -0.043696314096 -0.041660599411 -0.040279015899 -0.040789995342 -0.04156697914 -0.041904661804
          -0.042706273496 -0.039580468088 -0.042710103095 -0.043433774263 -0.043799616396 -0.040046367794
          -0.086624503136 -0.085034586489 -0.084703981876 -0.086630284786 -0.087856978178 -0.085067555308
          -0.08316603303 -0.083938144147 -0.084829024971 -0.085439316928 -0.086567342281 -0.082345508039
          -0.086480684578 -0.087630875409 -0.088142558932 -0.082958951592 -0.13578639925 -0.13389694691
          -0.13345019519 -0.13588982821 -0.13738906384 -0.13392430544 -0.13152980804 -0.13255533576
          -0.13355240226 -0.13441738486 -0.13584521413 -0.13060483336 -0.13568024337 -0.13721688092
          -0.13785208762 -0.13137154281 -0.19005045295 -0.1878554523 -0.1872856617 -0.19025923312
          -0.19203943014 -0.18786770105 -0.18498139083 -0.18626353145 -0.18734782934 -0.18848897517
          -0.19022187591 -0.18396186829 -0.1899650842 -0.19191196561 -0.19268196821 -0.18487341702
          -0.24876970053 -0.24627617002 -0.2455817461 -0.24908806384 -0.25115296245 -0.24628330767
          -0.24291735888 -0.24444246292 -0.24561904371 -0.2470279038 -0.24906079471 -0.24179849029
          -0.24871307611 -0.25107038021 -0.25197982788 -0.24284557998 -0.31102278829 -0.30824047327
          -0.3074272573 -0.31144508719 -0.313780725 -0.30824935436 -0.30441296101 -0.30617901683
          -0.30745106936 -0.3091058135 -0.31143519282 -0.30319982767 -0.31100937724 -0.31375065446
          -0.31478372216 -0.30438247323 -0.37626820803 -0.37323451042 -0.37233155966 -0.37676253915
          -0.37932762504 -0.37323576212 -0.36901313066 -0.37097576261 -0.37232708931 -0.37419298291
          -0.37676566839 -0.36771580577 -0.37627235055 -0.37933799624 -0.38047856092 -0.36902159452
          -0.44420692325 -0.44099909067 -0.44001922011 -0.4447697401 -0.44749426842 -0.44099611044
          -0.43649208546 -0.4385997355 -0.44000467658 -0.44202786684 -0.44477906823 -0.43514150381
          -0.44423261285 -0.44753539562 -0.44875389338 -0.4365246892 -0.51434707642 -0.51101458073
          -0.5099619627 -0.51497888565 -0.5178424716 -0.5109975338 -0.50626075268 -0.50849801302
          -0.5099144578 -0.51209104061 -0.51498949528 -0.50487738848 -0.51437216997 -0.51789903641
          -0.51919299364 -0.50632214546 -0.58598655462 -0.58250653744 -0.58138090372 -0.58668154478
          -0.5896948576 -0.58249646425 -0.5775321126 -0.579885602 -0.58133751154 -0.58365190029
          -0.58670371771 -0.57610732317 -0.58602869511 -0.58976620436 -0.59114778042 -0.57760286331
          -0.65834647417 -0.65473008156 -0.65354055166 -0.659093678 -0.66224372387 -0.65471029282
          -0.6495448947 -0.65200686455 -0.65348631144 -0.65592908859 -0.65910518169 -0.64807546139
          -0.65836590528 -0.66229313612 -0.66376149654 -0.64961528778 -0.73084276915 -0.72710651159
          -0.72586464882 -0.73162168264 -0.73488616943 -0.72708976269 -0.72176659107 -0.7243001461
          -0.72581613064 -0.72835022211 -0.73163044453 -0.72024863958 -0.7308524847 -0.73492151499
          -0.73645293713 -0.72182172537 -0.80318325758 -0.79935282469 -0.7980735898 -0.80398541689
          -0.80733209848 -0.79933959246 -0.79390311241 -0.79648262262 -0.79804086685 -0.80062925816
          -0.80398833752 -0.7923411727 -0.80319136381 -0.80735629797 -0.80893623829 -0.79394096136
          -0.87532430887 -0.87139868736 -0.87009555101 -0.87613368034 -0.87955725193 -0.87138712406
          -0.865840137 -0.86847108603 -0.87006950378 -0.8727055192 -0.87613296509 -0.86423969269
          -0.87531751394 -0.87956482172 -0.88118457794 -0.86586499214 -0.94731730223 -0.943356812
          -0.94204074144 -0.94813394547 -0.95159465075 -0.94335323572 -0.93776208162 -0.94040554762
          -0.94203186035 -0.94467633963 -0.94813430309 -0.93613094091 -0.94731491804 -0.95159292221
          -0.95322650671 -0.93776643276 -1.0193332434 -1.0153574944 -1.0140331984 -1.0201472044
          -1.0236178637 -1.0153579712 -1.0097454786 -1.0123946667 -1.0140304565 -1.0166826248
          -1.0201488733 -1.0081071854 -1.0193345547 -1.0236206055 -1.0252579451 -1.009747386
          0.072865128517 0.070902951062 0.070869334042 0.072598822415 0.074260279536 0.070104271173
          0.067891940475 0.06948029995 0.068898752332 0.071036607027 0.072147287428 0.068059384823
          0.071048855782 0.073307953775 0.074522659183 0.069088973105 0.069561451674 0.066799104214
          0.070896089077 0.067891642451 0.071449205279 0.073980972171 0.074856095016 0.042301144451
          0.041657172143 0.04205320403 0.043357647955 0.043378014117 0.043862510473 0.044491879642
          0.045138377696 0.045608688146 0.046752460301 0.046929858625 0.04740884155 0.045599292964
          0.02758304961 0.027117732912 0.027582604438 0.028782732785 0.028548927978 0.028810597956
          0.029412440956 0.030147766694 0.030265258625 0.031166411936 0.031271770597 0.031628914177
          0.030233645812 0.015181661583 0.014852358028 0.015202581882 0.016113575548 0.015873089433
          0.016176767647 0.016505399719 0.017068173736 0.017118467018 0.017727969214 0.017870105803
          0.018066845834 0.017212394625 0.0062085087411 0.0059973495081 0.0062443907373 0.0068686767481
          0.0066358777694 0.0069052651525 0.0070215133019 0.0074176448397 0.0073814224452 0.007717854809
          0.0078637311235 0.0079290531576 0.0075540654361 0.0012424149318 0.0011195692932 0.0012561677722
          0.0016583312536 0.0014081957052 0.0016970420256 0.0015776391374 0.0018890353385 0.0017357488396
          0.0018725194968 0.0019805626944 0.001950040576 0.0019909623079 0 0
          0 0 0 0 0 0
          0 0 0 0 0
        </DataArray>
        <DataArray type="Float32" Name="uy" format="ascii" RangeMin="-0.75065934658" RangeMax="0.82777738571">
          -0.017557805404 -0.017982151359 -0.018315941095 -0.01414379105 -0.01102681458 -0.01185393054
          -0.011617858894 -0.017337094992 -0.017687002197 -0.016077926382 -0.013844926842 -0.011148512363
          -0.010824544355 -0.011957976036 -0.018328135833 -0.016625665128 -0.011521486565 -0.01239076443
          -0.018739888445 -0.014387769625 -0.012166760862 -0.018827075139 -0.012091815472 -0.011831000447
          -0.014924330637 -0.018610419706 -0.013900524005 0.04051426053 0.040224686265 0.040737718344
          0.017802270129 0.017515063286 0.018043225631 0.040001194924 0.017262358218 0.040255252272
          0.017507962883 0.039133798331 0.0389960967 0.039778225124 0.016149500385 0.016001088545
          0.016971454024 0.038445096463 0.015257052146 0.039712671191 0.016900084913 0.039458803833
          0.016590079293 0.03994975239 0.017177678645 0.038662396371 0.015549286269 0.039333801717
          0.016452224925 0.039924621582 0.01715526171 0.040635608137 0.017944576219 0.067819178104
          0.067627482116 0.067992657423 0.067458420992 0.067633450031 0.066825136542 0.066739104688
          0.067305311561 0.066324472427 0.067249953747 0.067058056593 0.067439250648 0.066467478871
          0.066956877708 0.067388989031 0.067931003869 0.09862036258 0.098475933075 0.098729841411
          0.098356612027 0.098479837179 0.097934879363 0.097886577249 0.09826131165 0.097599640489
          0.098222315311 0.098083481193 0.098355054855 0.097683995962 0.098006084561 0.098304189742
          0.098683491349 0.13165269792 0.13155511022 0.13171219826 0.13147093356 0.13155826926
          0.13119317591 0.13119545579 0.13142672181 0.13097594678 0.13138265908 0.13127276301
          0.131498456 0.13099879026 0.1311956048 0.13141533732 0.13169172406 0.16625167429
          0.16615661979 0.16626393795 0.16610205173 0.16619627178 0.16589154303 0.16592463851
          0.16606575251 0.16574147344 0.1660285145 0.16593153775 0.16612701118 0.1657088846
          0.16584452987 0.16604721546 0.16623532772 0.20198090374 0.20189197361 0.20192596316
          0.20188777149 0.20198579133 0.20176149905 0.20183853805 0.20186038315 0.2016915381
          0.20182946324 0.20176540315 0.20191381872 0.20160841942 0.20168533921 0.20186296105
          0.20191366971 0.23869383335 0.2387239635 0.23858986795 0.2387907058 0.23883290589
          0.23888225853 0.23902355134 0.23883809149 0.23896333575 0.23880848289 0.23882175982
          0.23889800906 0.23883982003 0.2388073504 0.23885193467 0.23868332803 0.27683570981
          0.27699446678 0.27670767903 0.27713403106 0.27710449696 0.27743783593 0.27763527632
          0.27726003528 0.27765914798 0.2772294879 0.27732172608 0.27733671665 0.27751228213
          0.2773861289 0.2772898972 0.27691936493 0.3166744113 0.31697493792 0.31653681397
          0.31717199087 0.31706768274 0.31770426035 0.3179539144 0.31739252806 0.3180603385
          0.31735160947 0.31753277779 0.31747639179 0.31789961457 0.31767398119 0.31742376089
          0.31686374545 0.35846886039 0.35893204808 0.35832098126 0.35919830203 0.35900360346
          0.35998675227 0.36028075218 0.35951459408 0.36050358415 0.35947334766 0.35975620151
          0.35960635543 0.36034044623 0.35999369621 0.35956028104 0.35878130794 0.40248027444
          0.40313613415 0.40234094858 0.4034768343 0.40316173434 0.40456202626 0.40489503741
          0.4039028585 0.40526348352 0.40386754274 0.40426656604 0.4039979279 0.40511223674
          0.40463671088 0.40396788716 0.40294489264 0.44888445735 0.44972139597 0.44876053929
          0.4501118958 0.44967925549 0.45148470998 0.45184880495 0.45066171885 0.45235019922
          0.4506175518 0.45112469792 0.45075201988 0.45221462846 0.4516069293 0.45070126653
          0.44950321317 0.49763718247 0.49863302708 0.49754166603 0.49907538295 0.49853590131
          0.50067967176 0.50105160475 0.49970853329 0.50168508291 0.49967330694 0.50027614832
          0.49978911877 0.50157982111 0.50086313486 0.49975943565 0.49839416146 0.54861617088
          0.54970937967 0.54855751991 0.55016559362 0.5495505929 0.55191338062 0.55227279663
          0.55085420609 0.55299925804 0.55082029104 0.55148679018 0.55092257261 0.55292773247
          0.55214434862 0.55089324713 0.54946309328 0.60147231817 0.60262167454 0.60145103931
          0.60307109356 0.60240256786 0.60489213467 0.60522013903 0.60379070044 0.60599923134
          0.60376685858 0.60445970297 0.60384935141 0.60596728325 0.6051595211 0.60381478071
          0.60238188505 0.655631423 0.65685486794 0.65564465523 0.65731245279 0.65657824278
          0.65925550461 0.65956956148 0.65808135271 0.66043585539 0.65805864334 0.65879803896
          0.65812599659 0.66042971611 0.659550488 0.65808355808 0.65661323071 0.71074849367
          0.71202874184 0.71075832844 0.71251446009 0.71173483133 0.71455603838 0.71486896276
          0.71330177784 0.71580559015 0.713293612 0.71408003569 0.71332871914 0.71580594778
          0.71486759186 0.71331644058 0.71175175905 0.76647424698 0.7677924037 0.76647299528
          0.76829397678 0.76748502254 0.77041232586 0.77072769403 0.76911079884 0.77170687914
          0.76910978556 0.76991599798 0.76911997795 0.77171057463 0.7707259655 0.76911360025
          0.76749050617 0.82248139381 0.82381212711 0.82248485088 0.82431101799 0.82349085808
          0.82645827532 0.82677567005 0.82514321804 0.82777738571 0.82513308525 0.82594794035
          0.82514989376 0.82777369022 0.82676655054 0.82512754202 0.82350379229 -0.0045846747234
          -0.002899389714 -0.0042602955364 -0.0024677352048 -0.0034553946462 -0.00077600887744 -0.00057872821344
          -0.0016814561095 4.2389718146e-05 -0.0017289731186 -0.00093444407685 -0.0014988917392 0.00043851241935
          5.7305274822e-05 -0.0014679670567 -0.002896967344 -0.012354657985 -0.012726447545 -0.012610738166
          -0.012080848217 -0.012032861821 -0.012069744989 -0.011769190431 -0.051022540778 -0.050280231982
          -0.050627719611 -0.071371547878 -0.07092308253 -0.070950239897 -0.050228375942 -0.071029528975
          -0.050882913172 -0.071489192545 -0.04906521365 -0.049312453717 -0.049788478762 -0.070546492934
          -0.070851333439 -0.070802792907 -0.048438411206 -0.070383802056 -0.049728196114 -0.070763595402
          -0.049229066819 -0.070546939969 -0.049901846796 -0.070930764079 -0.048006448895 -0.069976054132
          -0.048629969358 -0.070203989744 -0.049913816154 -0.070955947042 -0.050232693553 -0.07080411911
          -0.095268078148 -0.095262676477 -0.09487593174 -0.095511347055 -0.095687367022 -0.095690980554
          -0.096060879529 -0.095545418561 -0.095919013023 -0.095507003367 -0.095541387796 -0.095657542348
          -0.095555827022 -0.095470488071 -0.095680914819 -0.095054291189 -0.12258961797 -0.1230160296
          -0.12224403769 -0.12340347469 -0.12329347432 -0.12427419424 -0.12472103536 -0.12371084839
          -0.12491524965 -0.12367233634 -0.1239707768 -0.12382639945 -0.12458471954 -0.1241799742
          -0.12383014709 -0.12274072319 -0.15315571427 -0.15402746201 -0.15284876525 -0.15456366539
          -0.15416584909 -0.15611565113 -0.15662746131 -0.1551322937 -0.15716187656 -0.15509818494
          -0.15567192435 -0.15523518622 -0.15687389672 -0.15616130829 -0.15525658429 -0.15366660058
          -0.18690989912 -0.18816711009 -0.18663087487 -0.18883150816 -0.18818247318 -0.19099628925
          -0.19156642258 -0.18963827193 -0.1924161315 -0.1896058172 -0.19041459262 -0.18972350657
          -0.19215288758 -0.19114424288 -0.18974256516 -0.18772926927 -0.22347657382 -0.22507679462
          -0.22321842611 -0.22586017847 -0.22497408092 -0.22859430313 -0.22921532393 -0.22687307
          -0.23036369681 -0.22685794532 -0.22787898779 -0.22693996131 -0.2301196754 -0.22882401943
          -0.22695918381 -0.22455269098 -0.26199620962 -0.26395714283 -0.26176804304 -0.26485052705
          -0.26372158527 -0.268158108 -0.26882597804 -0.26608866453 -0.27027273178 -0.2660754323
          -0.26730677485 -0.2661370039 -0.27005207539 -0.26847171783 -0.26614150405 -0.26335698366
          -0.30181604624 -0.30414056778 -0.30163154006 -0.30514121056 -0.30376389623 -0.30903127789
          -0.3097487092 -0.30660718679 -0.31149590015 -0.30659398437 -0.30805280805 -0.30663993955
          -0.31131631136 -0.30944880843 -0.30663439631 -0.30347305536 -0.34265992045 -0.34532549977
          -0.34250685573 -0.34644016623 -0.34483525157 -0.35087692738 -0.35163131356 -0.34810695052
          -0.35367611051 -0.3481041193 -0.34977638721 -0.34811732173 -0.35352438688 -0.35139411688
          -0.34812796116 -0.34458124638 -0.38395607471 -0.38690453768 -0.38382354379 -0.38811117411
          -0.38631311059 -0.39301472902 -0.39381080866 -0.38995435834 -0.39609837532 -0.38996058702
          -0.39180734754 -0.38994494081 -0.3959672451 -0.39360404015 -0.38995242119 -0.38609158993
          -0.42520415783 -0.4283644855 -0.42509746552 -0.42963063717 -0.42768859863 -0.43486008048
          -0.43567964435 -0.4316008985 -0.43814393878 -0.43160843849 -0.43358108401 -0.43158239126
          -0.43803694844 -0.43550491333 -0.43158370256 -0.42751526833 -0.46603095531 -0.46937602758
          -0.46595844626 -0.47068819404 -0.46861761808 -0.47620949149 -0.4770476222 -0.47277978063
          -0.47965818644 -0.47278812528 -0.47486659884 -0.47275677323 -0.4795819521 -0.4769153893
          -0.47274443507 -0.46850410104 -0.50605767965 -0.50959086418 -0.50601780415 -0.51096999645
          -0.50876712799 -0.51676040888 -0.51760005951 -0.51315546036 -0.52036553621 -0.51316839457
          -0.51537561417 -0.51311975718 -0.52033400536 -0.51755285263 -0.51313591003 -0.508692801
          -0.54522252083 -0.54893058538 -0.54520487785 -0.5503539443 -0.5480478406 -0.5564058423
          -0.55727279186 -0.55265313387 -0.5601555109 -0.5526625514 -0.55496919155 -0.55262351036
          -0.56014877558 -0.55726140738 -0.55263662338 -0.54801762104 -0.58368784189 -0.58752900362
          -0.58368808031 -0.58899623156 -0.58660596609 -0.59524405003 -0.59613513947 -0.59137439728
          -0.59910917282 -0.59138405323 -0.59376382828 -0.591350317 -0.59911364317 -0.59614294767
          -0.59135746956 -0.58660513163 -0.62166291475 -0.62560284138 -0.62166857719 -0.62710523605
          -0.62465792894 -0.63348525763 -0.63439810276 -0.62953311205 -0.63743251562 -0.62954354286
          -0.63198304176 -0.62951904535 -0.63744670153 -0.63442140818 -0.62953180075 -0.62466406822
          -0.65923792124 -0.66326367855 -0.65924453735 -0.66480338573 -0.66230839491 -0.67131769657
          -0.67225760221 -0.66728854179 -0.67535108328 -0.66728758812 -0.66978508234 -0.66727608442
          -0.67536002398 -0.6722766161 -0.667286098 -0.66231298447 -0.69677919149 -0.70085018873
          -0.69678002596 -0.70240283012 -0.69988405704 -0.70898485184 -0.70994114876 -0.7049176693
          -0.71304583549 -0.70491653681 -0.70743077993 -0.70491921902 -0.71304833889 -0.7099417448
          -0.70491403341 -0.69988667965 -0.73434245586 -0.73841917515 -0.73434275389 -0.73997730017
          -0.73745900393 -0.74658048153 -0.74754554033 -0.74250221252 -0.75065934658 -0.74250173569
          -0.74502128363 -0.74250000715 -0.75065755844 -0.74753880501 -0.74249827862 -0.73745626211
          -0.028628177941 -0.029689425603 -0.028144128621 -0.030360765755 -0.029879162088 -0.032131850719
          -0.032828316092 -0.031026942655 -0.033369205892 -0.030970346183 -0.031578730792 -0.031106304377
          -0.032872073352 -0.032069757581 -0.031149292365 -0.029142891988 -0.019547112286 -0.020159853622
          -0.020641189069 -0.01868080534 -0.018993293867 -0.020042326301 -0.019193779677 -0.0085033420473
          -0.010256111622 -0.012027921155 -0.013141588308 -0.01027643308 -0.0074226292782 -0.010279958136
          -0.01313952636 -0.010285778902 -0.012050829828 -0.0085414666682 -0.010312119499 -0.0074230623432
          -0.004778246861 -0.0061642471701 -0.0075595518574 -0.0083598252386 -0.0061858845875 -0.0039856182411
          -0.0062022595666 -0.0083132935688 -0.0062296357937 -0.007516045589 -0.0049947509542 -0.0062788128853
          -0.0041000540368 -0.0017180358991 -0.0027814814821 -0.0038217317779 -0.0043406691402 -0.0027667495888
          -0.0011545810848 -0.0027815466747 -0.0042444239371 -0.0028126339894 -0.0036977997515 -0.0020308627281
          -0.002900690306 -0.0013251914643 -3.770791227e-05 -0.00075048499275 -0.0014330061385 -0.0017092272174
          -0.00073337001959 0.00028213346377 -0.00074481702177 -0.0015801346162 -0.00077451072866 -0.0012510092929
          -0.00038655105163 -0.00084963679546 9.1948510089e-05 0.00037921784678 -4.4043550588e-05 -0.00045537529513
          -0.00052513845731 -3.8950769522e-05 0.00047741542221 -5.181742381e-05 -0.00034700680408 -7.4482704804e-05
          -0.00018244542298 -3.5743378248e-05 -0.00012950283417 0.00024663857766 0 0
          0 0 0 0 0 0
          0 0 0 0 0
        </DataArray>
        <DataArray type="Float32" Name="uz" format="ascii" RangeMin="-0.072156108916" RangeMax="0.048234771937">
          0.0041391253471 0.0044642221183 0.0027853220236 -0.0021433916409 -0.0082152113318 -0.0070750527084
          -0.0075055477209 0.0052585452795 0.0065164957196 0.0036053566728 -0.001174789737 -0.0076338867657
          -0.007744400762 -0.0047649559565 0.0021264578681 0.0010216161609 -0.0074982154183 -0.0062249959446
          0.0047562951222 -0.00026633229572 -0.0066709672101 0.0062206229195 -0.0065155499615 -0.0060511529446
          -0.0027130630333 0.0010071614524 -0.0016971320147 -0.052356489003 -0.049196384847 -0.061103537679
          -0.050609145314 -0.047399748117 -0.057636454701 -0.037633206695 -0.037848979235 -0.037890300155
          -0.038493715227 -0.029889207333 -0.036854565144 -0.044412016869 -0.030678167939 -0.035917039961
          -0.042853988707 -0.022374868393 -0.024123862386 -0.037363100797 -0.037258651108 -0.025688493624
          -0.02762022242 -0.051518101245 -0.048430230469 -0.013622015715 -0.017385097221 -0.013938019052
          -0.018054021522 -0.02322871238 -0.026015615091 -0.06077099964 -0.056766394526 -0.053788449615
          -0.050712317228 -0.063947506249 -0.037474766374 -0.037417627871 -0.029395176098 -0.037620909512
          -0.045717012137 -0.021247724071 -0.037521030754 -0.024298842996 -0.053954638541 -0.011092588305
          -0.011018905789 -0.02108626999 -0.06400089711 -0.05479105562 -0.051769971848 -0.06592965126
          -0.037390787154 -0.037114020437 -0.02911442332 -0.038214553148 -0.04665216431 -0.020534738898
          -0.037662386894 -0.023389395326 -0.055682107806 -0.0094081135467 -0.0090657593682 -0.019652055576
          -0.066257342696 -0.05539156124 -0.052484508604 -0.067171603441 -0.037375319749 -0.036915380508
          -0.029085403308 -0.038781285286 -0.047363523394 -0.020294852555 -0.037843566388 -0.022913282737
          -0.056905530393 -0.0085254944861 -0.0079459939152 -0.018795181066 -0.067740909755 -0.055521160364
          -0.052899464965 -0.067770734429 -0.037329733372 -0.036610610783 -0.029352100566 -0.039520718157
          -0.047969970852 -0.020601494238 -0.038066457957 -0.022776154801 -0.057878389955 -0.0083620734513
          -0.0074600526132 -0.018253073096 -0.068663626909 -0.055050991476 -0.05296683684 -0.067712903023
          -0.037107594311 -0.035984735936 -0.029859613627 -0.040509764105 -0.048486813903 -0.021434616297
          -0.038251675665 -0.022826151922 -0.058715060353 -0.0087899826467 -0.0073866513558 -0.017775291577
          -0.069107323885 -0.053987439722 -0.05273315683 -0.067095644772 -0.036648165435 -0.034927088767
          -0.030598640442 -0.04185019806 -0.048993073404 -0.022780669853 -0.03838801384 -0.022967692465
          -0.059592787176 -0.0096818357706 -0.0075400401838 -0.017182078212 -0.069236770272 -0.052484016865
          -0.052309896797 -0.066133461893 -0.035991091281 -0.033496856689 -0.031521618366 -0.043517123908
          -0.04954610765 -0.024526683614 -0.038501471281 -0.023139836267 -0.060586776584 -0.010874470696
          -0.0077728708275 -0.016414135695 -0.069224789739 -0.050691250712 -0.051805198193 -0.06499170512
          -0.035197086632 -0.031781677157 -0.032591722906 -0.0454663001 -0.050195172429 -0.026554627344
          -0.038621246815 -0.023320261389 -0.061755955219 -0.012253766879 -0.0080261565745 -0.015484866686
          -0.069215774536 -0.048774674535 -0.051278360188 -0.063811004162 -0.034318532795 -0.029900148511
          -0.033735591918 -0.047592062503 -0.050916641951 -0.028722967952 -0.038743983954 -0.023474242538
          -0.063081473112 -0.013680720702 -0.0082102483138 -0.014402622357 -0.069276809692 -0.046835396439
          -0.050759505481 -0.062670782208 -0.033391825855 -0.027937687933 -0.034845020622 -0.049750715494