<VTKFile type="UnstructuredGrid" version="1.0" byte_order="LittleEndian" header_type="UInt64">
  <UnstructuredGrid>
    <Piece NumberOfPoints="791" NumberOfCells="973">
      <PointData>
        <DataArray type="Float32" Name="ux" format="ascii" RangeMin="-0.7644919157" RangeMax="1.1401771307">
          0.044822365046 0.067428424954 0.013072124682 0.035253427923 0.027611143887 0.013055130839
          0.058969177306 0.084410756826 0.14631268382 0.11059556156 0.079588465393 0.11235975474
          0.067272163928 0.1047488749 -0.030037693679 0.0038201985881 -0.023214092478 -0.0035886543337
          0.095050759614 0.12927819788 0.084612958133 0.14972047508 0.12247223407 -0.033173166215
          -0.023410923779 -0.0628708601 0.056947171688 0.24030083418 0.19360052049 0.17648945749
          0.10428657383 0.080655746162 0.065832801163 0.24579124153 0.10655606538 0.28935807943
          0.13023912907 0.19802774489 0.14421209693 0.16534258425 0.088278599083 0.057641290128
          0.065650597215 0.18890193105 0.088897168636 0.20733724535 0.090897105634 0.24347393215
          0.10866469145 0.12102773786 0.036148246378 0.22984203696 0.10629231483 0.2707387805
          0.1235607937 0.29652497172 0.1322324723 0.12983171642 0.040735911578 0.4110276401
          0.35513967276 0.33369964361 0.42207530141 0.47827863693 0.35527041554 0.29358547926
          0.32103827596 0.33755490184 0.37302824855 0.41519722342 0.27288576961 0.39661332965
          0.45769101381 0.49389085174 0.28579410911 0.46978592873 0.4221522212 0.40490719676
          0.484998703 0.5288952589 0.42391988635 0.3605441153 0.39207419753 0.40585806966
          0.44037473202 0.47848504782 0.34514349699 0.4598737061 0.51788806915 0.54892241955
          0.35646721721 0.35427293181 0.31044843793 0.29584783316 0.36293044686 0.40447592735
          0.30541744828 0.25570759177 0.27977192402 0.28864762187 0.3218986094 0.35727149248
          0.24155707657 0.33968037367 0.39349961281 0.42025920749 0.2540961802 0.17566668987
          0.12130466104 0.10573468357 0.1806859225 0.22511009872 0.11331649125 0.046007104218
          0.078627884388 0.097144089639 0.13373745978 0.17577961087 0.025596775115 0.16269619763
          0.21768164635 0.24107967317 0.043337620795 -0.077591724694 -0.11711802334 -0.12687562406
          -0.070865496993 -0.039058629423 -0.1165118292 -0.17287117243 -0.14687180519 -0.12858308852
          -0.10373547673 -0.069845110178 -0.18982815742 -0.073955371976 -0.035416152328 -0.021099209785
          -0.16889624298 -0.25106573105 -0.26915574074 -0.27417296171 -0.24402602017 -0.22794008255
          -0.26326587796 -0.30337250233 -0.28431621194 -0.2690923512 -0.26040500402 -0.2392924428
          -0.31583014131 -0.23629578948 -0.21552838385 -0.21352882683 -0.30077567697 -0.32464760542
          -0.35195729136 -0.36192974448 -0.31628906727 -0.2927724123 -0.34628522396 -0.39904624224
          -0.37490737438 -0.35771265626 -0.34181547165 -0.30961856246 -0.4113150239 -0.30906715989
          -0.2802054584 -0.27439922094 -0.39364233613 -0.30033019185 -0.3529433012 -0.36430966854
          -0.29448193312 -0.24870203435 -0.35590338707 -0.42657509446 -0.39222967625 -0.37109059095
          -0.34159335494 -0.2952015698 -0.4445631206 -0.30470606685 -0.25261309743 -0.23131896555
          -0.4204467535 -0.22963699698 -0.28886631131 -0.30272421241 -0.22247233987 -0.17395067215
          -0.29168745875 -0.37139382958 -0.33288103342 -0.31124570966 -0.27127245069 -0.22536963224
          -0.39524954557 -0.23641121387 -0.17861717939 -0.1564771533 -0.36714541912 -0.047978550196
          -0.12312343717 -0.1488699168 -0.033739294857 0.033885400742 -0.12679517269 -0.23316822946
          -0.1806448251 -0.15390661359 -0.097076632082 -0.033100899309 -0.25949797034 -0.049454160035
          0.034456614405 0.063528843224 -0.22674804926 0.14967933297 0.059394881129 0.029044887051
          0.16947053373 0.25083017349 0.051819261163 -0.085332296789 -0.013805375434 0.012598376721
          0.08614090085 0.16706266999 -0.12123221904 0.14204002917 0.25224602222 0.29271963239
          -0.074371315539 0.26526835561 0.17064972222 0.13442897797 0.28951981664 0.37619104981
          0.17660906911 0.035669013858 0.099814482033 0.1452062726 0.20572808385 0.29265207052
          -0.0083074048162 0.27165701985 0.37592935562 0.41869610548 0.029780106619 0.32321101427
          0.24031537771 0.20735448599 0.34016990662 0.4142280519 0.24687942863 0.14276359975
          0.18528163433 0.22255842388 0.26902791858 0.33835172653 0.10012707859 0.3184132874
          0.40309086442 0.44234031439 0.12350038439 0.32967910171 0.29046809673 0.27541840076
          0.33699020743 0.37811464071 0.29308158159 0.25495234132 0.2685559094 0.28231167793
          0.30524513125 0.32980060577 0.23027554154 0.31448191404 0.35658362508 0.38621866703
          0.23639772832 0.27630573511 0.25944980979 0.24211132526 0.28622180223 0.3071282506
          0.26496708393 0.24663241208 0.25091147423 0.25759977102 0.26986950636 0.28622844815
          0.23637269437 0.27376306057 0.29928717017 0.31221556664 0.23173981905 0.080595016479
          0.073569558561 0.064907453954 0.089690089226 0.097024947405 0.076770961285 0.064474359155
          0.068835228682 0.070880383253 0.080504566431 0.087176665664 0.056809701025 0.082092396915
          0.09737817198 0.10480140895 0.057201940566 -0.22330321372 -0.23660962284 -0.24513077736
          -0.22221811116 -0.21148692071 -0.23870167136 -0.25464451313 -0.24691656232 -0.24593707919
          -0.23287558556 -0.22681342065 -0.2638143599 -0.23401734233 -0.2205939889 -0.20837830007
          -0.25971159339 -0.57723283768 -0.59008437395 -0.59779852629 -0.57320439816 -0.56397157907
          -0.5864739418 -0.60618656874 -0.59995794296 -0.59259164333 -0.58399379253 -0.57266008854
          -0.61296772957 -0.57374477386 -0.56458467245 -0.56066513062 -0.61055409908 0.014686747454
          0.051802694798 0.056788112968 0.019120076671 -0.0090433247387 0.065098136663 0.10199025273
          0.079683445394 0.082025267184 0.04962503165 0.033983901143 0.11102148145 0.050968922675
          0.017515752465 -0.0044356910512 0.096694722772 0.056596770883 0.10676639527 0.064921595156
          0.044705078006 0.01203494519 0.019387597218 -0.016953680664 -0.2557425499 -0.14481179416
          -0.10336358845 -0.39289596677 -0.31415894628 -0.28186014295 -0.27664858103 -0.41280755401
          -0.37733608484 -0.48175826669 -0.14445479214 0.0010012728162 -0.063213527203 -0.31969678402
          -0.2213255465 -0.26287004352 -0.11503560096 -0.29484963417 -0.17989863455 -0.3428761065
          -0.27101188898 -0.41062343121 0.053040623665 -0.18302598596 -0.24907334149 -0.39006987214
          -0.36519375443 -0.47676992416 -0.41469651461 -0.51357609034 0.016367347911 -0.2026989162
          -0.45667734742 -0.43487656116 -0.42146730423 -0.46225562692 -0.48354578018 -0.43642446399
          -0.41720384359 -0.4227822721 -0.4299634397 -0.44214227796 -0.45840373635 -0.40683889389
          -0.44864019752 -0.47229751945 -0.48857009411 -0.40515911579 -0.45780858397 -0.46892377734
          -0.46738988161 -0.45141431689 -0.44629704952 -0.46864682436 -0.50528043509 -0.4855928123
          -0.47766548395 -0.46237152815 -0.44386088848 -0.50768202543 -0.43953761458 -0.42101153731
          -0.42985889316 -0.4902151227 -0.36014732718 -0.40375912189 -0.41495501995 -0.35149914026
          -0.31667521596 -0.40177965164 -0.46862527728 -0.43595543504 -0.41291642189 -0.38670301437
          -0.34785139561 -0.48715874553 -0.34964090586 -0.30787274241 -0.29341590405 -0.46111109853
          -0.17742027342 -0.23921698332 -0.2553396523 -0.16865952313 -0.11540028453 -0.24032823741
          -0.32882386446 -0.28463083506 -0.26039156318 -0.21932223439 -0.17032170296 -0.35647115111
          -0.18227113783 -0.11821648479 -0.090365543962 -0.32823851705 0.03146635741 -0.053189530969
          -0.082229331136 0.048953831196 0.12558922172 -0.050888083875 -0.16771507263 -0.11339906603
          -0.079027362168 -0.024539852515 0.047584850341 -0.20355436206 0.029233789071 0.11810062826
          0.15608341992 -0.17032575607 0.24877010286 0.16684253514 0.14279828966 0.26013937593
          0.32909706235 0.16976717114 0.073561042547 0.1165285185 0.1476932615 0.19295723736
          0.25640752912 0.040076617151 0.23813441396 0.31294712424 0.35000482202 0.063727527857
          0.46832674742 0.40031373501 0.37616467476 0.47937360406 0.53794509172 0.39724496007
          0.32129099965 0.35644796491 0.37650242448 0.41997373104 0.46986421943 0.29474145174
          0.44764727354 0.51582217216 0.55206370354 0.30920749903 0.57731491327 0.53702151775
          0.51731646061 0.58889979124 0.62940275669 0.53634768724 0.4875511229 0.51106339693
          0.52168464661 0.55475115776 0.58389043808 0.46805074811 0.56491094828 0.61159825325
          0.64161747694 0.47698360682 0.47565197945 0.46158155799 0.44990932941 0.48083749413
          0.49944245815 0.45841774344 0.44787016511 0.45256134868 0.45012792945 0.46395403147
          0.47495549917 0.44263806939 0.46386572719 0.48909512162 0.50387835503 0.44218322635
          0.2395131588 0.24999886751 0.25471150875 0.23707173765 0.22761714458 0.24747398496
          0.26788249612 0.25856772065 0.24973043799 0.24859899282 0.23349502683 0.2731821835
          0.23135469854 0.22128888965 0.22083973885 0.26768395305 -0.039304669946 -0.048617608845
          -0.049856096506 -0.038629695773 -0.034144833684 -0.052437275648 -0.078474521637 -0.062637083232
          -0.062473960221 -0.046941585839 -0.038574807346 -0.07959574461 -0.040818035603 -0.02847915329
          -0.032132145017 -0.06488353014 -0.25871109962 -0.34353095293 -0.36621001363 -0.24581822753
          -0.17885044217 -0.34846800566 -0.47099891305 -0.40914312005 -0.37635365129 -0.31646230817
          -0.24532200396 -0.50187206268 -0.2560646832 -0.16992512345 -0.14402744174 -0.45783168077
          -0.38777175546 -0.50696206093 -0.53997910023 -0.36488604546 -0.26621881127 -0.51651537418
          -0.70046550035 -0.60758346319 -0.5592404604 -0.47180759907 -0.36329227686 -0.74715155363
          -0.38490518928 -0.25449419022 -0.21495264769 -0.68188482523 -0.39387413859 -0.52309072018
          -0.56046277285 -0.37178054452 -0.26340839267 -0.52558004856 -0.7149181366 -0.62307578325
          -0.56829404831 -0.4837166965 -0.36852240562 -0.7644919157 -0.38761746883 -0.25563728809
          -0.21095411479 -0.70095682144 -0.29034477472 -0.4021884799 -0.4330085218 -0.26704281569
          -0.17580382526 -0.39412489533 -0.56342804432 -0.48499366641 -0.42731648684 -0.36034816504
          -0.25719812512 -0.61130917072 -0.26593276858 -0.1515160352 -0.11910500377 -0.55660659075
          -0.018993420526 -0.13773491979 -0.17288941145 0.00089985324303 0.10300119966 -0.13442887366
          -0.30661410093 -0.22761085629 -0.1660246253 -0.09456705302 0.0096445931122 -0.36136463284
          -0.0011222118046 0.12048462033 0.15578754246 -0.3033362329 0.41445079446 0.28179261088
          0.24102494121 0.44209292531 0.55594241619 0.28648477793 0.093385159969 0.18314275146
          0.24399662018 0.32697045803 0.44914677739 0.039852619171 0.43008750677 0.57026964426
          0.61614775658 0.09476184845 0.94607460499 0.81695204973 0.7778814435 0.97056305408
          1.0823178291 0.81163954735 0.62721627951 0.71581459045 0.76940459013 0.85929709673
          0.96797549725 0.57369679213 0.94386446476 1.0837800503 1.1401771307 0.63205558062
          -0.03450126946 0.025129664689 0.071006372571 -0.075220800936 -0.13033215702 -0.0041486918926
          0.10228166729 0.068995520473 0.0011155058164 -0.015244526789 -0.093823507428 0.15960177779
          -0.10620702803 -0.17848724127 -0.18637852371 0.14557388425 0.04876312986 0.11938535422
          0.053959432989 0.04501434043 -0.0065841465257 -0.019284473732 -0.068015389144 0.01258122921
          -0.0057434635237 0.0008385736146 0.042066249996 0.039825472981 0.049203962088 0.073003478348
          0.10213412344 0.10294570774 0.14143779874 0.1241479665 0.14285317063 0.093947015703
          -0.026407698169 -0.055084444582 -0.024695944041 0.063615009189 0.044098563492 0.050883237273
          0.1069393605 0.16498701274 0.16777557135 0.23953305185 0.22660082579 0.2617379725
          0.14850485325 -0.060728181154 -0.10557164252 -0.05786896497 0.063772648573 0.044348083436
          0.056391507387 0.13842965662 0.21317641437 0.22530288994 0.32390803099 0.31263545156
          0.35945677757 0.19942189753 -0.043461672962 -0.088236615062 -0.048874676228 0.062994338572
          0.045735999942 0.05683779344 0.12906163931 0.2002274543 0.20791693032 0.29949524999
          0.27903017402 0.329195261 0.17725893855 -0.059726718813 -0.066198922694 -0.039795789868
          0.032034356147 0.0095888571814 0.012685625814 0.065188385546 0.11056048423 0.11806169152
          0.16518563032 0.17629928887 0.19360624254 0.10723478347 -5.2187987265e-10 -9.214266572e-10
          2.1441978748e-10 8.6206021488e-11 2.4586460645e-10 4.2020567581e-11 -1.3738474768e-11 -5.5413655435e-12
          -1.058805482e-13 0 0 0 2.7626869976e-12
        </DataArray>
        <DataArray type="Float32" Name="uy" format="ascii" RangeMin="-1.4241005182" RangeMax="0.95923739672">
          -0.59798115492 -0.51262784004 -0.47878962755 -0.66853821278 -0.71854442358 -0.60715001822
          -0.64061337709 -0.59907561541 -0.52373552322 -0.60127127171 -0.66348016262 -0.65313190222
          -0.71563410759 -0.67633140087 -0.52237176895 -0.60177606344 -0.65996390581 -0.68175202608
          -0.43240383267 -0.6018807888 -0.54969877005 -0.43108662963 -0.54790151119 -0.54475450516
          -0.60611230135 -0.41946691275 -0.6771954298 0.41951194406 0.37562772632 0.41887557507
          0.055344931781 0.025539020076 0.058903221041 0.35612502694 0.0089213019237 0.38056915998
          0.026831598952 0.29035550356 0.2764467597 0.33071273565 -0.029100172222 -0.041033100337
          -0.0052490318194 0.25080299377 -0.051742590964 0.33151224256 -0.005790987052 0.30468171835
          -0.022018074989 0.32646805048 -0.0085188737139 0.2538959384 -0.045262683183 0.27562177181
          -0.032038148493 0.32535251975 -0.0081665590405 0.38291290402 0.032735876739 0.59025633335
          0.53119415045 0.58707147837 0.50838476419 0.53970342875 0.42713007331 0.42225149274
          0.48096045852 0.38210338354 0.47582051158 0.4380466938 0.48126628995 0.37088358402
          0.39771860838 0.46161302924 0.54419833422 0.58873409033 0.53877997398 0.58682274818
          0.5139657855 0.54831326008 0.4406042099 0.43865656853 0.49423232675 0.39696082473
          0.48825651407 0.44939103723 0.49615219235 0.38396129012 0.40988585353 0.4739497304
          0.5493465066 0.52462261915 0.47730484605 0.5196415782 0.46412006021 0.48991087079
          0.39471271634 0.38605943322 0.43591013551 0.35431036353 0.43651649356 0.40589284897
          0.43245685101 0.34384813905 0.37169152498 0.42936626077 0.48372030258 0.39711603522
          0.34511861205 0.39677372575 0.32933819294 0.35645893216 0.24548372626 0.22942869365
          0.29185885191 0.19775024056 0.29526826739 0.26846042275 0.28308433294 0.19606588781
          0.23331364989 0.2944009006 0.34948548675 0.080923825502 0.044837806374 0.083593472838
          0.028882805258 0.051374450326 -0.035057321191 -0.046865861863 0.006912286859 -0.077888064086
          0.0058994311839 -0.01870233193 0.0066057890654 -0.076065413654 -0.042495910078 0.0039323195815
          0.055415421724 -0.25753951073 -0.27848359942 -0.25326022506 -0.29049122334 -0.27378293872
          -0.33560648561 -0.34157404304 -0.3036493063 -0.36262589693 -0.30813878775 -0.32233023643
          -0.30236071348 -0.35746186972 -0.33251217008 -0.30212405324 -0.26671174169 -0.39233008027
          -0.42164057493 -0.38831412792 -0.43623718619 -0.41635045409 -0.48802429438 -0.49267378449
          -0.4517788887 -0.52236497402 -0.45522767305 -0.475407511 -0.44597631693 -0.51946556568
          -0.48998293281 -0.45289081335 -0.40744674206 -0.3588553369 -0.40913647413 -0.35718438029
          -0.42723289132 -0.39399933815 -0.51260393858 -0.52311325073 -0.46177616715 -0.56360065937
          -0.46095120907 -0.48820334673 -0.45590007305 -0.55835956335 -0.51857095957 -0.45191949606
          -0.3943131268 -0.26269987226 -0.31400933862 -0.25349545479 -0.3399758637 -0.31096747518
          -0.42319205403 -0.43390706182 -0.36562088132 -0.47632879019 -0.37255069613 -0.40362483263
          -0.36228626966 -0.47396087646 -0.43244749308 -0.37363004684 -0.2906524539 -0.11880175769
          -0.18988262117 -0.11435659975 -0.22296702862 -0.17815846205 -0.33888405561 -0.35121440887
          -0.26086938381 -0.4139175117 -0.26599159837 -0.31227073073 -0.2562161684 -0.41707366705
          -0.35917034745 -0.26685386896 -0.16500534117 0.097772873938 0.0031625169795 0.098308905959
          -0.037579532713 0.02754358761 -0.20566757023 -0.22726503015 -0.10058659315 -0.30894875526
          -0.099663928151 -0.16487284005 -0.094101853669 -0.30880600214 -0.22857525945 -0.098265647888
          0.027562595904 0.39113721251 0.2886441946 0.3913051188 0.2468932569 0.31018668413
          0.079108633101 0.055744573474 0.18484701216 -0.022828072309 0.18285797536 0.11710393429
          0.18433074653 -0.023738678545 0.049298409373 0.1777831316 0.31366929412 0.61084675789
          0.52731895447 0.60896217823 0.495156914 0.54349714518 0.36552625895 0.34231844544
          0.4405451715 0.28892102838 0.4464789927 0.39598470926 0.4372177422 0.28776556253
          0.34317079186 0.44049590826 0.53905487061 0.59171611071 0.54296803474 0.58936411142
          0.52683985233 0.55287444592 0.45876279473 0.4481035471 0.49655652046 0.42940291762
          0.49899607897 0.46959576011 0.49030053616 0.42434358597 0.44081285596 0.48996734619
          0.5492464304 0.38085237145 0.3582059741 0.37481608987 0.35205337405 0.36281174421
          0.32875260711 0.32254493237 0.33907586336 0.31480571628 0.33898797631 0.33035165071
          0.33566316962 0.3114592135 0.31623679399 0.33653470874 0.35185793042 0.10280548036
          0.087031342089 0.095045551658 0.087442301214 0.096472881734 0.066263698041 0.060236189514
          0.074945241213 0.053651183844 0.07854026556 0.069086901844 0.06818882376 0.052152898163
          0.058693218976 0.076784186065 0.079862453043 -0.24617350101 -0.26358222961 -0.24705079198
          -0.27040037513 -0.26358363032 -0.29322594404 -0.29874140024 -0.28142854571 -0.3012574017
          -0.28051632643 -0.2879601419 -0.28573516011 -0.3024764955 -0.29538196325 -0.28095200658
          -0.26110422611 -0.68111974001 -0.69073086977 -0.67914527655 -0.69920229912 -0.69277888536
          -0.70674949884 -0.70686805248 -0.69842612743 -0.71453076601 -0.70179009438 -0.70378255844
          -0.69810348749 -0.71393060684 -0.71135360003 -0.70498979092 -0.68738758564 -0.6430426836
          -0.54219281673 -0.64335399866 -0.50566405058 -0.5659326911 -0.36219608784 -0.33700072765
          -0.44446745515 -0.278988868 -0.45115712285 -0.39648798108 -0.44398289919 -0.28114524484
          -0.34315994382 -0.45019206405 -0.56440365314 -0.45923632383 -0.43635854125 -0.36450359225
          -0.5507234931 -0.49106803536 -0.3629386127 -0.42755821347 0.74554723501 0.62218868732
          0.74201446772 0.83884096146 0.75598055124 0.83274036646 0.58176034689 0.72977805138
          0.65291678905 0.77933394909 0.39727473259 0.3644528389 0.50373834372 0.6028085947
          0.58028131723 0.67373895645 0.29063946009 0.53033018112 0.50897037983 0.68119555712
          0.44143882394 0.63435399532 0.49812057614 0.66750526428 0.29492607713 0.52966964245
          0.37738856673 0.58851867914 0.51086372137 0.68394625187 0.64563459158 0.76567184925
          0.76805180311 0.74020016193 0.76378184557 0.73228377104 0.74711787701 0.70140701532
          0.69617938995 0.71805894375 0.68668031693 0.71795290709 0.70516180992 0.71260499954
          0.68105149269 0.68927139044 0.71355330944 0.73963874578 0.61389261484 0.62296140194
          0.60854971409 0.62782347202 0.61839711666 0.66125869751 0.67009192705 0.63855236769
          0.69167417288 0.63764482737 0.64643245935 0.63710522652 0.68198883533 0.65277475119
          0.62991696596 0.61186003685 0.29249227047 0.33523032069 0.29022100568 0.35389232635
          0.32474532723 0.42765852809 0.43765351176 0.37929549813 0.47582900524 0.3809376657
          0.40694975853 0.37122941017 0.47089010477 0.43127855659 0.37482783198 0.31637012959
          -0.14403618872 -0.081346027553 -0.14793908596 -0.056692659855 -0.098195552826 0.054073475301
          0.072152942419 -0.009254575707 0.11597595364 -0.013820888475 0.026349842548 -0.011906456202
          0.11392110586 0.064275771379 -0.016318116337 -0.095708958805 -0.61582422256 -0.53115862608
          -0.61549693346 -0.49306720495 -0.54465824366 -0.35543057323 -0.33217075467 -0.44414576888
          -0.26906752586 -0.44361722469 -0.38711386919 -0.44236132503 -0.26867356896 -0.33118140697
          -0.43355774879 -0.54908061028 -0.876083076 -0.79953211546 -0.87828761339 -0.76658833027
          -0.81051564217 -0.65542840958 -0.63766020536 -0.7272875309 -0.58679318428 -0.72503232956
          -0.677541852 -0.71836024523 -0.58401978016 -0.62838149071 -0.71208953857 -0.81133633852
          -0.9263548851 -0.86146390438 -0.92450803518 -0.83742636442 -0.87332177162 -0.74623012543
          -0.73178648949 -0.80156558752 -0.69207972288 -0.8012034893 -0.76537889242 -0.79657459259
          -0.68594843149 -0.72361600399 -0.7933281064 -0.86836224794 -0.80542933941 -0.75665253401
          -0.80317044258 -0.73858654499 -0.76533073187 -0.66796922684 -0.65963202715 -0.71071958542
          -0.63064241409 -0.71119481325 -0.67967665195 -0.70432513952 -0.623932302 -0.64445930719
          -0.70054787397 -0.76018178463 -0.47322621942 -0.45118457079 -0.46443614364 -0.45269185305
          -0.46418765187 -0.42372393608 -0.42404681444 -0.43597185612 -0.41522678733 -0.44029405713
          -0.43017116189 -0.42907619476 -0.40698587894 -0.41063523293 -0.4384188056 -0.44476574659
          -0.0174927935 -0.025792479515 -0.015613921918 -0.034763745964 -0.026899281889 -0.053868539631
          -0.058608885854 -0.039872139692 -0.068694546819 -0.041820943356 -0.05045126006 -0.040194518864
          -0.067570447922 -0.056077543646 -0.044583138078 -0.024448262528 0.36321637034 0.36540237069
          0.35527783632 0.37059918046 0.36833947897 0.38352516294 0.38616174459 0.37184745073
          0.39903280139 0.37459924817 0.37764906883 0.36585518718 0.39321184158 0.37714290619
          0.37003368139 0.35480976105 0.48095580935 0.56245392561 0.47478654981 0.59774303436
          0.54388844967 0.73042863607 0.74452370405 0.64578670263 0.81431251764 0.64829534292
          0.69696593285 0.63580477238 0.8108086586 0.73935550451 0.63955801725 0.53186583519
          0.45865666866 0.5772330761 0.45216625929 0.62330824137 0.54889565706 0.82822483778
          0.85817688704 0.70107096434 0.95923739672 0.70075750351 0.77294635773 0.69481265545
          0.95145148039 0.84602445364 0.6922711134 0.54026317596 0.35609808564 0.4809820056
          0.3519128263 0.52926260233 0.44731432199 0.74210107327 0.7735877037 0.60868173838
          0.87845176458 0.60957193375 0.68428850174 0.60469835997 0.86921387911 0.76163291931
          0.60064542294 0.44721725583 0.16810539365 0.27709811926 0.16594877839 0.31918382645
          0.24757947028 0.5149217844 0.54651194811 0.39152449369 0.64592009783 0.39248412848
          0.46498078108 0.38607031107 0.63487398624 0.53285121918 0.3854586482 0.24536122382
          -0.21714437008 -0.099727667868 -0.22022174299 -0.057048086077 -0.13082820177 0.14975507557
          0.18537063897 0.023938067257 0.28420442343 0.023386187851 0.096782341599 0.019527556375
          0.27262037992 0.16330938041 0.0079482998699 -0.13236999512 -0.79837310314 -0.66997724771
          -0.80289411545 -0.61951577663 -0.69974935055 -0.3986055851 -0.36203584075 -0.53653770685
          -0.25623339415 -0.53552514315 -0.45367774367 -0.53831356764 -0.2601300776 -0.37581047416
          -0.54053580761 -0.70503932238 -1.4239240885 -1.2892743349 -1.4241005182 -1.2388800383
          -1.3224170208 -1.0124294758 -0.97721290588 -1.1504812241 -0.87751668692 -1.1514866352
          -1.0663551092 -1.1484045982 -0.87868160009 -0.98331558704 -1.1523485184 -1.3246059418
          0.066992692649 0.057790506631 0.069472000003 0.055173568428 0.059991847724 0.02777528204
          0.018653484061 0.040961638093 0.013160521165 0.044047348201 0.039047546685 0.03844139725
          0.020188173279 0.034317135811 0.050675366074 0.061519313604 -0.35523784161 -0.33755499125
          -0.27866739035 -0.43274393678 -0.37669631839 -0.27402836084 -0.32265207171 -0.82972562313
          -0.87165522575 -0.91043567657 -0.93608307838 -0.8672799468 -0.80274730921 -0.8643040657
          -0.93047457933 -0.86059981585 -0.8935469985 -0.81798344851 -0.85412228107 -0.80091142654
          -0.70478284359 -0.79577130079 -0.88920265436 -0.94984418154 -0.79864805937 -0.65453386307
          -0.79647094011 -0.94872176647 -0.79833161831 -0.88731497526 -0.70655804873 -0.79518872499
          -0.65345144272 -0.58381605148 -0.72527778149 -0.86035913229 -0.94283783436 -0.72067648172
          -0.49817305803 -0.71908706427 -0.93600106239 -0.71375393867 -0.84483468533 -0.57628554106
          -0.70593494177 -0.49618032575 -0.44353535771 -0.55746197701 -0.67756527662 -0.75642246008
          -0.56002271175 -0.37324821949 -0.56114262342 -0.75122398138 -0.55898487568 -0.67437261343
          -0.43825149536 -0.55200082064 -0.3718316257 -0.18844594061 -0.26625138521 -0.33918449283
          -0.37363839149 -0.25832179189 -0.13418771327 -0.25606539845 -0.36947706342 -0.25974556804
          -0.32978832722 -0.19556665421 -0.26885885 -0.14072798193 -8.7607310295e-11 3.5729530445e-11
          4.4990209475e-12 7.166602381e-12 7.1170166115e-12 3.1090293534e-11 -6.590085682e-12 6.2663628626e-12
          -2.3831383915e-12 0 0 0 6.8636188313e-13
        </DataArray>
        <DataArray type="Float32" Name="uz" format="ascii" RangeMin="-0.42052447796" RangeMax="0.49126586318">
          0.186866045 0.11135601997 0.21319577098 0.19983707368 0.19706892967 0.22231663764
          0.13130144775 0.093610048294 -0.028522964567 0.026507863775 0.09597774595 0.0044147958979
          0.11249622703 0.038257449865 0.3085898757 0.26254442334 0.30887424946 0.267981112
          0.04665998742 -0.00013248124742 0.070201985538 -0.047584086657 -0.016681872308 0.33332803845
          0.30148741603 0.33415865898 0.14766542614 0.078361973166 0.061881054193 0.0023455964401
          0.13148532808 0.063068307936 0.015087815002 0.14343325794 0.1783401221 0.16955441236
          0.24715469778 0.13307468593 0.05527343601 0.0538793616 0.10449290276 -0.028651004657
          0.014387924224 0.14999739826 0.088597014546 0.11678158492 0.11337754875 0.18979561329
          0.20987197757 -0.014085097238 -0.088351294398 0.23227834702 0.22290320694 0.26855656505
          0.31260931492 0.24369516969 0.31887465715 -0.031852860004 -0.069941952825 0.049740538001
          0.063746452332 0.026651352644 0.093991152942 0.088363431394 0.11370246112 0.09101318568
          0.071059584618 0.14091679454 0.093921139836 0.12571725249 0.046452000737 0.16395735741
          0.15861396492 0.13000008464 0.025559179485 0.067014522851 0.066318303347 0.076312117279
          0.0535373725 0.052342489362 0.04636381194 0.048815526068 0.05800736323 0.039486888796
          0.05313469097 0.04157935828 0.063359342515 0.031946413219 0.029395222664 0.036523282528
          0.07512460649 0.089392453432 0.075335338712 0.12495012581 0.023882893845 0.030820203945
          -0.013761846349 0.018043987453 0.056337192655 -0.051383335143 0.022259611636 -0.032314840704
          0.086991079152 -0.087448082864 -0.081778779626 -0.037135902792 0.12656722963 0.093837760389
          0.091773822904 0.16992975771 0.00073763588443 -0.013146471232 -0.019798493013 0.048500683159
          0.07922077179 -0.058202363551 0.016718070954 -0.068669967353 0.14025072753 -0.13523860276
          -0.15336872637 -0.10831812769 0.18588085473 0.067913651466 0.086334146559 0.16711804271
          -0.019075181335 -0.053885832429 -0.0070170881227 0.091449983418 0.093029640615 -0.028434162959
          0.013819531538 -0.078393600881 0.18062530458 -0.13299651444 -0.18183447421 -0.14838060737
          0.20821154118 0.043573305011 0.063039414585 0.11361778527 -0.011606220156 -0.042390514165
          0.0068841548637 0.08509221673 0.075254499912 -0.00040580393397 0.015167227015 -0.051832102239
          0.14041405916 -0.081459276378 -0.12369786203 -0.10637860745 0.14865963161 0.035899799317
          0.046701479703 0.061259623617 0.019420679659 0.010697504506 0.027865512297 0.058213710785
          0.056250408292 0.023785036057 0.031923636794 0.004011105746 0.079071819782 -0.0079562384635
          -0.020520949736 -0.012158380821 0.077834010124 0.018625685945 0.021992795169 0.0059942048974
          0.03482894972 0.03743904084 0.043583337218 0.034520301968 0.029302956536 0.047164339572
          0.035430233926 0.047206066549 0.017057787627 0.055835470557 0.060272909701 0.05320641771
          0.005453989841 -0.021547017619 -0.015025814064 -0.053786028177 0.023085776716 0.022125983611
          0.05030297488 0.018021602184 -0.0042971316725 0.074797175825 0.024546094239 0.063813649118
          -0.037075262517 0.10698914528 0.10376630723 0.068408176303 -0.063447065651 -0.065716095269
          -0.05867151171 -0.11975391954 0.0069319386967 0.0093547450379 0.029006155208 -0.0097622284666
          -0.046370316297 0.067426651716 -0.0025415716227 0.059890322387 -0.083905406296 0.11436782032
          0.11986962706 0.079995125532 -0.12631255388 -0.050405539572 -0.075034290552 -0.13156831264