<VTKFile type="UnstructuredGrid" version="1.0" byte_order="LittleEndian" header_type="UInt64">
  <UnstructuredGrid>
    <Piece NumberOfPoints="791" NumberOfCells="973">
      <PointData>
        <DataArray type="Float32" Name="ux" format="ascii" RangeMin="0" RangeMax="0.59232443571">
          0.3401633203 0.16559460759 0.23140907288 0.4346896708 0.13261239231 0.22122260928
          0.52387714386 0.5090045929 0.13259580731 0.50744241476 0.57580763102 0.12479680777
          0.52761435509 0.13505832851 0.17512713373 0.26010391116 0.42542514205 0.25272491574
          0.51529866457 0.50072556734 0.31929308176 0.20105794072 0.50064116716 0.08888400346
          0.52234631777 0.11652033031 0.55318462849 0.14119707048 0.41329815984 0.52170711756
          0.42759773135 0.37723976374 0.11733581126 0.15737262368 0.2535931766 0.32139244676
          0.54153591394 0.32320666313 0.21906907856 0.34273579717 0.55215072632 0.10842966288
          0.35962727666 0.2767021358 0.31381195784 0.086522728205 0.46233955026 0.55152463913
          0.12787303329 0.24933201075 0.4062962234 0.095608144999 0.21050029993 0.52938920259
          0.24602365494 0.33025670052 0.26288458705 0.44311633706 0.49023717642 0.19167287648
          0.2181378752 0.070331186056 0.34189516306 0.20278085768 0.21954105794 0.090830400586
          0.35200658441 0.24258558452 0.28645956516 0.10004712641 0.29165413976 0.53330647945
          0.38427555561 0.32433119416 0.13273337483 0.33753871918 0.29282274842 0.30438268185
          0.36345353723 0.2957701087 0.3544229269 0.48332551122 0.11554859579 0.21634230018
          0.1364171207 0.11100452393 0.42485141754 0.21778780222 0.39370915294 0.16118070483
          0.40310385823 0.10776951909 0.42369231582 0.30369690061 0.38555344939 0.42539393902
          0.24605546892 0.20308814943 0.095334649086 0.12726770341 0.44950345159 0.44267353415
          0.13811200857 0.094994224608 0.28238338232 0.45685368776 0.13029882312 0.34262186289
          0.18050658703 0.088338799775 0.26954746246 0.40048950911 0.20509086549 0.14939187467
          0.26315203309 0.30033636093 0.084813646972 0.27635484934 0.26748341322 0.23475307226
          0.20429743826 0.34846928716 0.22533595562 0.14151996374 0.19042249024 0.40041586757
          0.51026499271 0.23101682961 0.54492402077 0.58889305592 0.31185004115 0.27430221438
          0.35526108742 0.50503009558 0.30354681611 0.59172934294 0.23147462308 0.2984315753
          0.11296860874 0.31725820899 0.425278157 0.20214194059 0.19462552667 0.23919083178
          0.53686332703 0.34367421269 0.445440799 0.2426199466 0.06437356025 0.18308158219
          0.22910295427 0.51687824726 0.38179329038 0.2009255439 0.250402987 0.090287074447
          0.48995390534 0.12847562134 0.54473620653 0.30504819751 0.16184578836 0.22528101504
          0.25993904471 0.29054367542 0.20511727035 0.48785191774 0.19779787958 0.26713073254
          0.51513153315 0.44013276696 0.12175645679 0.14856918156 0.13056024909 0.4156139493
          0.18597137928 0.58531957865 0.29635205865 0.25356578827 0.18227085471 0.51938873529
          0.083345897496 0.54379016161 0.53641074896 0.55902212858 0.53205800056 0.37518632412
          0.53700274229 0.17410324514 0.44665524364 0.53717702627 0.45722121 0.16647171974
          0.42604345083 0.45062732697 0.39486885071 0.06680355221 0.3344271183 0.46093863249
          0.57327908278 0.54703563452 0.53687828779 0.19936814904 0.58935970068 0.41785401106
          0.17905370891 0.17228966951 0.25186294317 0.18033495545 0.3399118185 0.44898918271
          0.19429394603 0.34843325615 0.3351624012 0.29537329078 0.12152487785 0.56279557943
          0.41998878121 0.44308030605 0.27140730619 0.082665257156 0.18779842556 0.55322986841
          0.16032709181 0.19428490102 0.40678700805 0.47917616367 0.56931817532 0.094191044569
          0.089798867702 0.18570163846 0.28195154667 0.50176012516 0.075467243791 0.1409240365
          0.33138993382 0.24979948997 0.58261173964 0.58387178183 0.36223003268 0.4584107995
          0.21416915953 0.58376294374 0.33772706985 0.37519070506 0.14034329355 0.1097227037
          0.062774807215 0.11489737779 0.090298548341 0.48583859205 0.39674499631 0.25468379259
          0.3485840857 0.4082660675 0.11105085164 0.57252627611 0.58192199469 0.50554656982
          0.087993122637 0.11902454495 0.15258398652 0.15653087199 0.25677859783 0.45466154814
          0.38281726837 0.57040327787 0.29057174921 0.37713029981 0.4474991858 0.44896605611
          0.47291952372 0.57837641239 0.17323686182 0.20421294868 0.065180659294 0.11382134259
          0.56131106615 0.57983696461 0.17720843852 0.56017321348 0.42219027877 0.062117047608
          0.36713957787 0.34612897038 0.21883414686 0.099109858274 0.062276411802 0.16829672456
          0.20947116613 0.53264141083 0.36905163527 0.20832571387 0.42176866531 0.45017719269
          0.18101660907 0.13799893856 0.3572281301 0.12399556488 0.54669159651 0.39208000898
          0.21474282444 0.32052603364 0.27444922924 0.263890028 0.38878840208 0.46972388029
          0.39345479012 0.3731135726 0.22119432688 0.36369612813 0.15182124078 0.52316349745
          0.37428599596 0.24970427155 0.3125282228 0.24479776621 0.09532289207 0.42760542035
          0.51160162687 0.30393823981 0.31084635854 0.5215845108 0.15272317827 0.28821596503
          0.23827628791 0.49582475424 0.17456565797 0.06538054347 0.37488561869 0.33937528729
          0.15387631953 0.32739791274 0.2663731873 0.35797083378 0.15112686157 0.2670750618
          0.20444607735 0.22038120031 0.2453173846 0.16841714084 0.1650853008 0.17410443723
          0.55296701193 0.1025673449 0.15023081005 0.081496320665 0.069530107081 0.29575157166
          0.33084627986 0.43918436766 0.50816971064 0.54676479101 0.5244948864 0.48024252057
          0.42094391584 0.26467823982 0.48156434298 0.1334195286 0.49486804008 0.1990981698
          0.48550155759 0.55550324917 0.19916847348 0.54337364435 0.49489334226 0.32312166691
          0.076649673283 0.38215011358 0.58877366781 0.12738749385 0.2679810226 0.29245483875
          0.16075022519 0.31096854806 0.48465159535 0.20370028913 0.39593058825 0.40693193674
          0.31948924065 0.59232443571 0.24955500662 0.52360105515 0.062108393759 0.075698792934
          0.44468989968 0.50251084566 0.069303773344 0.4103384316 0.43448209763 0.29822000861
          0.52527177334 0.2766879499 0.26801395416 0.43041539192 0.41035491228 0.081030122936
          0.13984124362 0.12255490571 0.33029299974 0.41050228477 0.29834228754 0.12468349934
          0.32298541069 0.29491949081 0.28395587206 0.27155846357 0.4609361589 0.43534350395
          0.33683264256 0.59002268314 0.26814639568 0.1065890789 0.39913809299 0.35290828347
          0.56727099419 0.19232431054 0.12121585011 0.20116351545 0.48693215847 0.1742399931
          0.20259435475 0.44115203619 0.40209540725 0.11683392525 0.28432539105 0.12930592895
          0.26753246784 0.091727562249 0.1667701304 0.29404205084 0.557282269 0.39771825075
          0.5616235137 0.50014424324 0.26834115386 0.42423117161 0.23339009285 0.21245503426
          0.44798767567 0.35103800893 0.38727062941 0.2826025188 0.54036408663 0.32323807478
          0.095478840172 0.3645119071 0.14222311974 0.083788722754 0.39284351468 0.59013938904
          0.50823110342 0.14733852446 0.44889482856 0.15285225213 0.23626036942 0.18216103315
          0.57874876261 0.17013944685 0.14874608815 0.44296362996 0.5695656538 0.45521712303
          0.070165582001 0.1032859236 0.49576383829 0.47938731313 0.11908328533 0.49899822474
          0.40209037066 0.30370852351 0.51441609859 0.53138315678 0.52682548761 0.14489747584
          0.18361645937 0.40042924881 0.33123499155 0.3517460227 0.38535580039 0.20943769813
          0.402782619 0.5681630969 0.36998531222 0.57290828228 0.52343857288 0.24134150147
          0.40899962187 0.52834379673 0.40130367875 0.25173249841 0.16906972229 0.51744812727
          0.30189940333 0.41349413991 0.33783942461 0.18295119703 0.19474738836 0.1079011187
          0.5010997057 0.19950772822 0.34829548001 0.54167634249 0.36487454176 0.1409381032
          0.34972146153 0.49687764049 0.32570144534 0.55738800764 0.15355245769 0.10799688846
          0.52551925182 0.18504717946 0.5593457222 0.24921135604 0.26291254163 0.22671896219
          0.57988590002 0.32295390964 0.14321886003 0.29624593258 0.3624355495 0.11655272543
          0.44264262915 0.53269737959 0.54930102825 0.40847548842 0.11383046955 0.17247022688
          0.46842119098 0.14769902825 0.16701641679 0.34250807762 0.41603064537 0.18077661097
          0.57424867153 0.14751242101 0.27045559883 0.47217851877 0.32857954502 0.20435041189
          0.47004958987 0.5006890893 0.42382195592 0.28260761499 0.23753908277 0.41672572494
          0.45695364475 0.58759027719 0.49638077617 0.58593165874 0.48366609216 0.41736224294
          0.30185309052 0.15720902383 0.14666742086 0.08401633054 0.31119641662 0.16097211838
          0.31964796782 0.1298699826 0.41138398647 0.3211632967 0.54972505569 0.17784442008
          0.29835128784 0.12278163433 0.54990321398 0.18396452069 0.36581149697 0.074372082949
          0.10389379412 0.55876338482 0.24599432945 0.35389831662 0.063344098628 0.44895833731
          0.58713108301 0.25919765234 0.24488073587 0.16116949916 0.34853371978 0.21222937107
          0.38520002365 0.57950723171 0.58298844099 0.29580762982 0.50137376785 0.28840079904
          0.089737132192 0.50625252724 0.36469230056 0.24576693773 0.37776109576 0.20234178007
          0.18798670173 0.49724447727 0.32893544436 0.16554801166 0.41876000166 0.30682235956
          0.49418672919 0.50110089779 0.22662305832 0.27029615641 0.34334132075 0.53342860937
          0.34282669425 0.42345711589 0.42629808187 0.26227110624 0.4540412724 0.54708367586
          0.53342396021 0.54098236561 0.39104020596 0.21865177155 0.43107959628 0.1200107038
          0.56426626444 0.097794674337 0.56054151058 0.1515481025 0.23674787581 0.15850806236
          0.48405709863 0.33044588566 0.44759905338 0.22899268568 0.23869721591 0.19361449778
          0.40785264969 0.56773597002 0.48187658191 0.48893985152 0.54124063253 0.46979120374
          0.07317776233 0.2440392375 0.28441476822 0.1549102217 0.35752153397 0.37114486098
          0.2398930192 0.12946413457 0.20606142282 0.42184332013 0.51780235767 0.13064450026
          0.47428613901 0.26114931703 0.4598993659 0.54166471958 0.085250541568 0.13823027909
          0.50265157223 0.35645696521 0.23512293398 0.46850502491 0.20396459103 0.53207993507
          0.36472854018 0.27043631673 0.30821284652 0.39336660504 0.16860604286 0.21053297818
          0.11879535764 0.26387354732 0.1748547256 0.38253945112 0.3503716886 0.22024908662
          0.35762909055 0.29612839222 0.48035687208 0.49326643348 0.12938910723 0.24420918524
          0.083314992487 0.29381531477 0.19072176516 0.13971598446 0.4442602694 0.53828805685
          0.42514783144 0.37622207403 0.55031812191 0.26628288627 0.15467002988 0.095488004386
          0.24800409377 0.33977597952 0.4660550952 0.10379683226 0.14644379914 0.52078592777
          0.31776127219 0.20315644145 0.53994941711 0.49101749063 0.17038421333 0.069501444697
          0.1105992198 0.23148806393 0.31609833241 0.58900529146 0.38727521896 0.44109374285
          0.1835437417 0.38266858459 0.28579476476 0.41395872831 0.43980699778 0.5704806447
          0.55047726631 0.38547888398 0.30190455914 0.19148008525 0.38912853599 0.38384619355
          0.47969704866 0.29418924451 0.30799719691 0.39720967412 0.24569934607 0.39570638537
          0.18907612562 0.091501288116 0.29491460323 0.13359542191 0.45952636003 0.57618498802
          0.14912468195 0.42000544071 0.54028207064 0.38403871655 0.32785513997 0.15824741125
          0.5357235074 0.56404238939 0.40113410354 0.0928395316 0.20506687462 0.4602522254
          0.31018143892 0.3552390039 0.26302868128 0.087098911405 0.26075577736 0.30502164364
          0.079551033676 0.095917679369 0.44360733032 0.4995534718 0.087049596012 0.40632343292
          0.31618002057 0.5771587491 0.50002563 0.13872340322 0.11217537522 0.45199990273
          0.53196924925 0.42267814279 0.23518638313 0.22240820527 0.26004293561 0.13211932778
          0.35889059305 0.080162204802 0.17676238716 0.070475064218 0.24381634593 0.23073542118
          0.22309677303 0.079014904797 0.18782417476 0.28228548169 0 0
          0 0 0 0 0 0
          0 0 0 0 0
        </DataArray>
        <DataArray type="Float32" Name="uy" format="ascii" RangeMin="0" RangeMax="0.59194773436">
          0.40354529023 0.10566459596 0.38155815005 0.35204878449 0.23619881272 0.29439151287
          0.3586602211 0.1445633322 0.10167913884 0.47868934274 0.40979486704 0.12092544883
          0.34630209208 0.51611232758 0.14478890598 0.17467361689 0.44180893898 0.26000276208
          0.54733008146 0.098782129586 0.4400600493 0.34054562449 0.22943857312 0.2548416853
          0.15770964324 0.17023980618 0.31669524312 0.35974171758 0.13705915213 0.29635933042
          0.11184024811 0.19756570458 0.21331332624 0.47443068027 0.50014895201 0.51076167822
          0.49788245559 0.46967285872 0.55993360281 0.078316174448 0.34454864264 0.56733888388
          0.32178500295 0.072035878897 0.59194773436 0.54640424252 0.16349551082 0.30731666088
          0.31895378232 0.3300075531 0.34514909983 0.32099074125 0.53460347652 0.12147700787
          0.092199005187 0.12102981657 0.237670362 0.4009886682 0.43663081527 0.29970631003
          0.10788919032 0.34047627449 0.37585031986 0.31638523936 0.31316924095 0.52545058727
          0.50135761499 0.508469522 0.23764936626 0.39361512661 0.1925418973 0.55578148365
          0.55303257704 0.095763012767 0.2681530714 0.57706809044 0.39136838913 0.095300994813
          0.43192017078 0.59043079615 0.55733752251 0.40571796894 0.13153783977 0.22009347379
          0.23737725616 0.21504178643 0.27485504746 0.25254386663 0.32257264853 0.33000463247
          0.15301971138 0.377564013 0.58046913147 0.2274659574 0.3216458559 0.35736292601
          0.5667514801 0.1864349097 0.0795423612 0.30772486329 0.40397280455 0.57514542341
          0.25365531445 0.57168579102 0.26151672006 0.40660500526 0.23375302553 0.36905449629
          0.13312609494 0.58613216877 0.34612432122 0.52160024643 0.088247023523 0.18182212114
          0.24894189835 0.26474717259 0.33348241448 0.35880532861 0.1050651446 0.11493920535
          0.2258014977 0.44686669111 0.27893978357 0.090526238084 0.14225237072 0.5362791419
          0.50459158421 0.50354933739 0.37274762988 0.083684571087 0.48024776578 0.1870007813
          0.4204416573 0.53882348537 0.28956654668 0.52815288305 0.080278761685 0.44505012035
          0.094404794276 0.19948680699 0.50449246168 0.32329124212 0.25786966085 0.18197633326
          0.33959317207 0.52165752649 0.14385990798 0.40173873305 0.36664617062 0.3378855288
          0.074526868761 0.32641527057 0.51887065172 0.31802222133 0.44858419895 0.34943214059
          0.080859661102 0.24451246858 0.48414060473 0.15849974751 0.53784966469 0.48675441742
          0.49735021591 0.086913004518 0.58902209997 0.25885733962 0.25287410617 0.58502388
          0.48912990093 0.39908793569 0.18342828751 0.52497953176 0.093615993857 0.47599810362
          0.18807902932 0.15432958305 0.53421890736 0.26440122724 0.27434757352 0.18781921268
          0.070712178946 0.34834292531 0.26146188378 0.12774501741 0.18502059579 0.51578474045
          0.33069089055 0.38402980566 0.15940773487 0.25219681859 0.26103699207 0.21530105174
          0.11235070974 0.2338501662 0.43025156856 0.17995300889 0.32251229882 0.21532723308
          0.25351062417 0.32502627373 0.20443320274 0.49855816364 0.52617406845 0.49209415913
          0.35524189472 0.19469584525 0.55800068378 0.52802473307 0.36029395461 0.3534540534
          0.36523541808 0.13592794538 0.50105339289 0.2443485409 0.26884460449 0.16066712141
          0.25859898329 0.23916725814 0.10238213837 0.12200700492 0.42158702016 0.24843147397
          0.49640840292 0.40539693832 0.45983752608 0.52334201336 0.22242037952 0.18412965536
          0.26546692848 0.48047363758 0.46149450541 0.15012142062 0.16521635652 0.065546452999
          0.23560243845 0.28339537978 0.13751205802 0.33384093642 0.58436489105 0.10649067163
          0.13674803078 0.2897002399 0.51268917322 0.29110744596 0.3270856142 0.082128666341
          0.26845133305 0.52023106813 0.2232671231 0.18402101099 0.2924040556 0.20774661005
          0.30582126975 0.30500033498 0.12039120495 0.51577556133 0.15604433417 0.26231518388
          0.32447996736 0.096039034426 0.19577042758 0.088303603232 0.060643821955 0.30705803633
          0.21538729966 0.526270926 0.29497164488 0.33022612333 0.071330629289 0.31729146838
          0.274510324 0.24191193283 0.44608381391 0.39429461956 0.27931374311 0.25456181169
          0.41804406047 0.19256323576 0.21996612847 0.29307934642 0.35381287336 0.14687533677
          0.18529033661 0.48180109262 0.39173722267 0.33920666575 0.54855889082 0.093786247075
          0.46775561571 0.068598538637 0.22009029984 0.50980567932 0.36526283622 0.41717404127
          0.3995103538 0.3868252933 0.28299355507 0.58688956499 0.54193127155 0.22578541934
          0.55281633139 0.53020441532 0.30741557479 0.23780748248 0.49965059757 0.32872229815
          0.38028931618 0.26993218064 0.19967345893 0.25375306606 0.52707356215 0.21882532537
          0.42069748044 0.32394003868 0.34883314371 0.22265706956 0.57576936483 0.12571023405
          0.25405752659 0.260160923 0.5392088294 0.21687354147 0.25316178799 0.39358878136
          0.10847436637 0.46580922604 0.55861318111 0.064690724015 0.21594655514 0.40511757135
          0.29384416342 0.21922726929 0.44644874334 0.33405455947 0.3122048974 0.35549509525
          0.09969215095 0.28462415934 0.13295295835 0.29028639197 0.24536769092 0.30866199732
          0.20306491852 0.23580284417 0.31624168158 0.20915684104 0.59161764383 0.10872957855
          0.56890535355 0.31414055824 0.57267165184 0.24862089753 0.32390859723 0.2813129425
          0.28190919757 0.29083025455 0.45182725787 0.58298319578 0.13965272903 0.36131981015
          0.48044875264 0.14979627728 0.27389004827 0.46372961998 0.27731499076 0.18345752358
          0.11264884472 0.31527489424 0.56568551064 0.34538513422 0.48435714841 0.12711380422
          0.38645359874 0.43998229504 0.20614986122 0.50326001644 0.34506520629 0.33247858286
          0.45187145472 0.35423153639 0.09920451045 0.061090003699 0.55547255278 0.24315473437
          0.55922418833 0.26103416085 0.57344824076 0.299218297 0.44294345379 0.5306840539
          0.071376033127 0.060721565038 0.33657068014 0.20821200311 0.18184636533 0.54817014933
          0.55652290583 0.315256387 0.070054881275 0.52065747976 0.13733810186 0.2225714922
          0.10666989535 0.52003693581 0.44653084874 0.41249039769 0.38698980212 0.1626957655
          0.46687215567 0.49201005697 0.19720454514 0.21374849975 0.16987064481 0.20362116396
          0.27434450388 0.33061593771 0.40341624618 0.36260885 0.14374858141 0.39463800192
          0.25124156475 0.091686241329 0.58969134092 0.063172236085 0.38944852352 0.17250561714
          0.091548040509 0.12401326001 0.22207087278 0.41692537069 0.48177433014 0.51783180237
          0.58648604155 0.45219478011 0.4714512825 0.38519138098 0.50765293837 0.2777338326
          0.36067980528 0.24595302343 0.45622330904 0.30107972026 0.34182986617 0.55122947693
          0.26394122839 0.33014136553 0.36736634374 0.57124119997 0.38517066836 0.14345780015
          0.38496086001 0.27609983087 0.36175492406 0.22120262682 0.23209105432 0.50127118826
          0.41876459122 0.32408943772 0.24193912745 0.24184662104 0.59050428867 0.13173371553
          0.53792303801 0.2570015192 0.18815515935 0.39898368716 0.10503192246 0.23236644268
          0.37698975205 0.28962171078 0.08220589906 0.49253100157 0.09438495338 0.55591207743
          0.46493962407 0.29793101549 0.27429863811 0.16528239846 0.47003602982 0.32270520926
          0.10680519044 0.1709780097 0.55714070797 0.2795419693 0.26626849174 0.41080012918
          0.15586793423 0.57689636946 0.52886098623 0.23180909455 0.091873638332 0.20079918206
          0.24113756418 0.30100753903 0.23771375418 0.43837565184 0.13831987977 0.21511417627
          0.55955797434 0.18745273352 0.12033885717 0.12893508375 0.061682727188 0.34911441803
          0.47580865026 0.57316285372 0.25841280818 0.48387086391 0.46835663915 0.39600521326
          0.28248155117 0.40547525883 0.53963971138 0.26911368966 0.35564014316 0.34900742769
          0.31216961145 0.18126104772 0.23581434786 0.45004251599 0.31449213624 0.38698455691
          0.39228782058 0.27215847373 0.42168670893 0.33138999343 0.13394334912 0.46953502297
          0.275570333 0.58597618341 0.12441310287 0.35849383473 0.53518551588 0.30411300063
          0.1351633817 0.5181543231 0.17724567652 0.45529255271 0.57849901915 0.096715711057
          0.29830345511 0.56830507517 0.32088983059 0.45590662956 0.41808000207 0.44672909379
          0.065396308899 0.53172415495 0.31731554866 0.20076054335 0.4611313343 0.55982106924
          0.1273765415 0.15291200578 0.33007836342 0.12952390313 0.26238429546 0.11337028444
          0.36060005426 0.33714663982 0.39090555906 0.35631480813 0.53654742241 0.1053257063
          0.1897701472 0.24507202208 0.2491389662 0.58992165327 0.3593800962 0.2093551755
          0.22690795362 0.55232727528 0.22501930594 0.20045538247 0.30797407031 0.58642399311
          0.21485945582 0.23001307249 0.47565796971 0.49870547652 0.50611793995 0.54029500484
          0.31221568584 0.068661831319 0.12043552101 0.2827039361 0.2826320231 0.087297298014
          0.10019022971 0.098198406398 0.37593886256 0.40465483069 0.38949716091 0.48544111848
          0.51194280386 0.36298248172 0.26251253486 0.24874742329 0.53229695559 0.41250559688
          0.29265350103 0.22520706058 0.32013136148 0.44084835052 0.27825835347 0.081401519477
          0.28867080808 0.29457432032 0.13298593462 0.077033244073 0.39550638199 0.39782378078
          0.36327630281 0.12112215161 0.29859286547 0.13094164431 0.13394089043 0.10979481041
          0.40392506123 0.35643741488 0.24296045303 0.14962750673 0.23292213678 0.54269659519
          0.40251743793 0.55719840527 0.19766068459 0.33359128237 0.21156129241 0.54631507397
          0.23795822263 0.24228149652 0.45745354891 0.3365971446 0.18713706732 0.53728872538
          0.12857200205 0.064351581037 0.34905424714 0.1497374326 0.28403764963 0.30855569243
          0.068113029003 0.115231134 0.094086416066 0.44166579843 0.35154575109 0.26004755497
          0.17887759209 0.20620974898 0.40580835938 0.55418360233 0.42353868484 0.57453799248
          0.58480751514 0.14475907385 0.45958441496 0.18659847975 0.51315373182 0.069735385478
          0.095236837864 0.15116336942 0.44225788116 0.074823051691 0.16667275131 0.32644593716
          0.35627371073 0.59181964397 0.37447065115 0.091645173728 0.46208184958 0.11462763697
          0.5815666914 0.40382483602 0.36251726747 0.53002893925 0.19489352405 0.36547669768
          0.32302320004 0.58941471577 0.28669470549 0.39663040638 0.53055971861 0.47612151504
          0.41677626967 0.51398801804 0.54644024372 0.23547425866 0.57706552744 0.23107267916
          0.26300534606 0.34047830105 0.43089088798 0.083657130599 0.52302128077 0.51590204239
          0.3286370337 0.58225929737 0.34231823683 0.31625628471 0.37333354354 0.41713476181
          0.11411099881 0.23417788744 0.47318768501 0.56706321239 0.13363075256 0.14982417226
          0.41577446461 0.2650205791 0.20150585473 0.57654094696 0.25155040622 0.10189915448
          0.2334907949 0.24111907184 0.56496828794 0.43456682563 0.55489808321 0.5226739645
          0.36326062679 0.27004247904 0.54302608967 0.3357334137 0.46793633699 0.47080823779
          0.47934740782 0.14972379804 0.44564542174 0.27293071151 0.15477839112 0.24402569234
          0.3765450418 0.21529649198 0.4721993506 0.34392014146 0.50705116987 0.20883619785
          0.32303509116 0.25363484025 0.11013683677 0.27570435405 0.47839054465 0.44919675589
          0.10906188935 0.55270880461 0.12814833224 0.4751946032 0.15435741842 0.061611484736
          0.57949310541 0.2413136065 0.14220002294 0.5784740448 0.16262982786 0.092475317419
          0.44005700946 0.13493311405 0.34366598725 0.59069097042 0.17468178272 0.34366992116
          0.42311614752 0.47601437569 0.51149326563 0.13875374198 0.32586574554 0.39754191041
          0.45320358872 0.54244923592 0.50248134136 0.40351110697 0.14145356417 0.37302684784
          0.11842916906 0.30296835303 0.31704685092 0.4096673429 0 0
          0 0 0 0 0 0
          0 0 0 0 0
        </DataArray>
        <DataArray type="Float32" Name="uz" format="ascii" RangeMin="0" RangeMax="0.59206968546">
          0.46422368288 0.43322342634 0.56720131636 0.39877277613 0.3132610321 0.1034571901
          0.15202230215 0.36890995502 0.31029042602 0.32151952386 0.087408155203 0.14396993816
          0.35326105356 0.13379558921 0.4108068645 0.32419550419 0.36135444045 0.43827775121
          0.49121129513 0.066656149924 0.37888845801 0.41544815898 0.10139176995 0.40532058477
          0.14121878147 0.38522064686 0.15769653022 0.36263668537 0.23769588768 0.42483651638
          0.3810057044 0.41135919094 0.17468771338 0.54231476784 0.47364497185 0.27053388953
          0.34352254868 0.29085233808 0.089095339179 0.25112116337 0.45926088095 0.48658919334
          0.33768507838 0.26026633382 0.34722456336 0.087826825678 0.18785692751 0.43978717923
          0.37498411536 0.098331868649 0.48554080725 0.15118286014 0.19649682939 0.17949417233
          0.39425909519 0.47444856167 0.48442268372 0.11459717155 0.48942014575 0.42293694615
          0.23636589944 0.22378046811 0.31309506297 0.27610492706 0.11821665615 0.47142991424
          0.54363787174 0.45365726948 0.4962451458 0.2656480968 0.39739713073 0.074634179473
          0.50736707449 0.19291345775 0.49025797844 0.35565716028 0.57814484835 0.51142179966
          0.12158261985 0.31484934688 0.5272064805 0.55961555243 0.30229634047 0.52508813143
          0.21782492101 0.55653530359 0.49426075816 0.58982425928 0.16955827177 0.35840174556
          0.5427107811 0.22401328385 0.12287565321 0.20638713241 0.4752163291 0.45413053036
          0.57024228573 0.25520452857 0.31188726425 0.099117666483 0.43320757151 0.55660718679
          0.22676862776 0.59106993675 0.29937809706 0.34902694821 0.096855528653 0.14118655026
          0.52316617966 0.44071471691 0.30097979307 0.35664182901 0.17656306922 0.33848854899
          0.32652646303 0.1902192235 0.53433716297 0.51130241156 0.095509782434 0.37278866768
          0.10410651565 0.19463065267 0.55213600397 0.34435483813 0.53997135162 0.29040673375
          0.58358848095 0.51896977425 0.08782851696 0.31817305088 0.13815227151 0.31352341175
          0.092397503555 0.34110179543 0.45586487651 0.55217725039 0.51531773806 0.51419109106
          0.31994742155 0.26612570882 0.59041821957 0.54473412037 0.39718109369 0.1308247745
          0.12613238394 0.47765535116 0.38122260571 0.10384245962 0.41685351729 0.57424610853
          0.58821392059 0.24536448717 0.41789641976 0.26101648808 0.33723980188 0.22103877366
          0.38197791576 0.42061895132 0.49336731434 0.48561957479 0.56130218506 0.097465701401
          0.40466976166 0.35308361053 0.43788337708 0.099871270359 0.46573147178 0.24418286979
          0.22457414865 0.22804684937 0.32705596089 0.20389084518 0.5908138752 0.49295660853
          0.39660257101 0.46507045627 0.20433804393 0.32632192969 0.5486625433 0.45862537622
          0.25229951739 0.5028591156 0.26806053519 0.1380122453 0.46571964025 0.25909492373
          0.5322611928 0.35119992495 0.12355336547 0.50725001097 0.24614264071 0.51189172268
          0.17751511931 0.42235097289 0.18305285275 0.3020221293 0.11791691929 0.49823719263
          0.12546679378 0.33946067095 0.2019816339 0.26395943761 0.1766269207 0.087787725031
          0.55958294868 0.27285912633 0.2588711381 0.36026108265 0.20572386682 0.34720724821
          0.45767638087 0.52124363184 0.45155724883 0.21556702256 0.18222035468 0.59149032831
          0.15163074434 0.15451958776 0.32710528374 0.0630402565 0.26540392637 0.48423671722
          0.068620480597 0.15946474671 0.34404692054 0.52984178066 0.34676942229 0.093234986067
          0.40299361944 0.18620914221 0.47726243734 0.58628511429 0.20286868513 0.23225769401
          0.1324698627 0.33880341053 0.56440389156 0.36165490746 0.47295442224 0.40041390061
          0.44582608342 0.39334949851 0.32777777314 0.15545794368 0.44489139318 0.1127935797
          0.24112413824 0.18347808719 0.40690484643 0.55222189426 0.10838031024 0.26972201467
          0.50341129303 0.29874846339 0.099520266056 0.34730112553 0.55688363314 0.21285945177
          0.39301744103 0.52075260878 0.47384622693 0.1523848176 0.062758393586 0.36882936954
          0.53475928307 0.45609015226 0.066684007645 0.091604910791 0.43676963449 0.22489099205
          0.44192618132 0.14223393798 0.069267906249 0.13111288846 0.47613683343 0.16473408043
          0.13990758359 0.37042862177 0.24664153159 0.46189433336 0.51241201162 0.17548079789
          0.29008188844 0.090814568102 0.20650915802 0.44871145487 0.18873906136 0.5162872076
          0.39220899343 0.34575247765 0.11942086369 0.16529746354 0.51453179121 0.52443355322
          0.27170500159 0.10981459171 0.3871345818 0.26525324583 0.081493191421 0.34787097573
          0.17154681683 0.54234689474 0.18407277763 0.34362095594 0.13882896304 0.52121758461
          0.47210291028 0.58221238852 0.46326705813 0.27999174595 0.50691217184 0.54362440109
          0.15706254542 0.33594572544 0.078425809741 0.46985256672 0.36581894755 0.342890203
          0.20373599231 0.20914955437 0.15019859374 0.2420848161 0.3669591248 0.3851082027