<VTKFile type="UnstructuredGrid" version="1.0" byte_order="LittleEndian" header_type="UInt64">
  <UnstructuredGrid>
    <Piece NumberOfPoints="791" NumberOfCells="973">
      <PointData>
        <DataArray type="Float32" Name="ux" format="ascii" RangeMin="-0.85506933928" RangeMax="1.0965843201">
          0.92015498877 0.91020685434 0.92111051083 0.92295080423 0.92536783218 0.92388898134
          0.91266602278 0.90858232975 0.89648532867 0.90149283409 0.90813964605 0.901250422
          0.91368091106 0.90269339085 0.93391495943 0.93193680048 0.94126701355 0.93361926079
          0.89930838346 0.90171533823 0.89749550819 0.88965350389 0.8871293664 0.93318170309
          0.94047421217 0.93121170998 0.91415327787 0.65274238586 0.61838656664 0.60540056229
          0.77125227451 0.74359995127 0.73293751478 0.66206908226 0.77834349871 0.6926509738
          0.80299633741 0.61994719505 0.56953561306 0.59283936024 0.74535441399 0.70678526163
          0.72396546602 0.60808235407 0.7365322113 0.63124758005 0.75416243076 0.66308605671
          0.77867400646 0.55468165874 0.69401651621 0.65616482496 0.77274036407 0.69504755735
          0.80268633366 0.70910423994 0.81471598148 0.56829297543 0.70373159647 0.51620453596
          0.47434324026 0.45860049129 0.52747422457 0.56468939781 0.47533914447 0.41327491403
          0.44267225266 0.46022433043 0.48980391026 0.52872776985 0.39599779248 0.51974064112
          0.56789857149 0.58503395319 0.41321185231 0.35155189037 0.30166614056 0.28340482712
          0.36455738544 0.40873816609 0.30265176296 0.22885511816 0.26383191347 0.28484460711
          0.31985753775 0.3659362793 0.20833314955 0.3555033505 0.41257676482 0.43249773979
          0.2293446362 0.16207417846 0.10426446795 0.083873108029 0.1761315316 0.22691728175
          0.10540367663 0.020380703732 0.060507759452 0.085461601615 0.12480384111 0.17770369351
          -0.003746410599 0.16638194025 0.23095530272 0.25383704901 0.020826455206 -0.036513656378
          -0.10223592073 -0.12448805571 -0.021616324782 0.035648021847 -0.10106737167 -0.19687905908
          -0.15190510452 -0.12289891392 -0.07933306694 -0.019986009225 -0.22469116747 -0.031866215169
          0.03996039927 0.06513351202 -0.19637477398 -0.22446143627 -0.29876801372 -0.32286411524
          -0.20895192027 -0.14493982494 -0.29774603248 -0.40490570664 -0.3546988368 -0.32159522176
          -0.27361118793 -0.20756843686 -0.43637678027 -0.22044494748 -0.14118801057 -0.11307168752
          -0.40430063009 -0.37865659595 -0.46194764972 -0.48882120848 -0.36216574907 -0.29062178731
          -0.46098348498 -0.57959669828 -0.52443373203 -0.48720762134 -0.4342007041 -0.36108356714
          -0.61530935764 -0.37527677417 -0.28765133023 -0.25600746274 -0.57979100943 -0.49108529091
          -0.58242064714 -0.61195611954 -0.4734454155 -0.39498209953 -0.58095240593 -0.70967358351
          -0.65031826496 -0.60889989138 -0.55188751221 -0.47252202034 -0.74953818321 -0.48812091351
          -0.39303350449 -0.35798954964 -0.71161043644 -0.55599677563 -0.65447735786 -0.68612533808
          -0.53774762154 -0.45327720046 -0.65314257145 -0.79053533077 -0.72753238678 -0.68266117573
          -0.62216824293 -0.53723824024 -0.83386695385 -0.55410140753 -0.45280021429 -0.41465643048
          -0.79351872206 -0.56109642982 -0.66578412056 -0.69929206371 -0.5420575738 -0.45243284106
          -0.66418254375 -0.80906802416 -0.74280321598 -0.69546473026 -0.63146555424 -0.54195481539
          -0.85506933928 -0.55990421772 -0.45301863551 -0.41213172674 -0.81285214424 -0.49979379773
          -0.610417068 -0.64602285624 -0.47928285599 -0.38419249654 -0.60911267996 -0.76249933243
          -0.69188648462 -0.64287829399 -0.57406842709 -0.47927999496 -0.81047153473 -0.49928233027
          -0.38517960906 -0.34130761027 -0.76577675343 -0.38648703694 -0.5007237196 -0.53799027205
          -0.36461484432 -0.26599299908 -0.4995149076 -0.65843302011 -0.5849558115 -0.53517138958
          -0.46291071177 -0.36459931731 -0.70751726627 -0.38607764244 -0.26699855924 -0.22110183537
          -0.6614985466 -0.24011984468 -0.35586416721 -0.39418369532 -0.21719825268 -0.11680272222
          -0.35471412539 -0.51598966122 -0.44118258357 -0.39126098156 -0.31724911928 -0.21709731221
          -0.56527787447 -0.2394631654 -0.11778093874 -0.070889540017 -0.51882088184 -0.069184370339
          -0.18586269021 -0.22478406131 -0.045935045928 0.055386357009 -0.18519793451 -0.34823897481
          -0.27229133248 -0.22287040949 -0.14700368047 -0.046115417033 -0.39752668142 -0.069371543825
          0.054385691881 0.10213065892 -0.35060080886 0.11602734774 -0.0021353366319 -0.041939996183
          0.14052768052 0.24386137724 -0.0011342745274 -0.16736449301 -0.089678667486 -0.039676949382
          0.037637401372 0.14075568318 -0.2172498703 0.1171015501 0.24389261007 0.29246690869
          -0.16939419508 0.30659329891 0.18529163301 0.14467145503 0.3318002522 0.43777817488
          0.18591599166 0.014662090689 0.0950781703 0.1457773 0.2260440737 0.33220928907
          -0.035854235291 0.30779275298 0.43847066164 0.48801904917 0.013826184906 0.50136446953
          0.37809929252 0.33704668283 0.52684390545 0.6342112422 0.37873673439 0.20417003334
          0.28627187014 0.3380587697 0.41948267817 0.52733129263 0.15280868113 0.50273644924
          0.63516104221 0.68525129557 0.20382085443 0.70317029953 0.57938414812 0.53838658333
          0.72838062048 0.8361722827 0.57945638895 0.40454134345 0.48704522848 0.53850209713
          0.62059235573 0.72855889797 0.35311689973 0.70349317789 0.83652180433 0.88732010126
          0.40445232391 0.91168385744 0.78743422031 0.74622219801 0.9371470809 1.0454864502
          0.78731054068 0.6119005084 0.69475126266 0.74592858553 0.82865422964 0.93711584806
          0.56086742878 0.91166216135 1.0455243587 1.0965843201 0.61207032204 0.91645377874
          0.87959212065 0.89245223999 0.89568501711 0.92261105776 0.84728693962 0.81731444597
          0.84933793545 0.82421058416 0.86935663223 0.87587171793 0.83025097847 0.84932339191
          0.88204783201 0.90988844633 0.85815370083 0.89395606518 0.87641453743 0.87756860256
          0.90860009193 0.91196811199 0.89250975847 0.91429048777 0.85994577408 0.8475831151
          0.84319329262 0.77577996254 0.76270717382 0.75685101748 0.86336797476 0.78086513281
          0.87519842386 0.79338282347 0.84705841541 0.82872164249 0.83830469847 0.76297569275
          0.74213379622 0.75254786015 0.84091567993 0.7568872571 0.8519269228 0.76821410656
          0.86321431398 0.78146547079 0.82553213835 0.73753857613 0.85881388187 0.77737492323
          0.87472403049 0.79494404793 0.88123095036 0.8011649251 0.83080393076 0.74289566278
          0.6585021615 0.6448622942 0.63904047012 0.66295939684 0.67590409517 0.64466017485
          0.62438172102 0.63447773457 0.63863247633 0.64992719889 0.66291618347 0.61955076456
          0.65836411715 0.6758543849 0.68286627531 0.62477737665 0.50641381741 0.49359890819
          0.48813921213 0.51009017229 0.52222311497 0.49332648516 0.47536429763 0.48415577412
          0.48796930909 0.49824941158 0.5096565485 0.47056415677 0.50519400835 0.52104777098
          0.52799022198 0.47497659922 0.32143375278 0.30907922983 0.30436396599 0.32430404425
          0.33573165536 0.30890357494 0.29226991534 0.30019134283 0.30429720879 0.31333726645
          0.32400357723 0.28767248988 0.32020390034 0.33438482881 0.34065303206 0.29188767076
          0.11521717161 0.10400895029 0.1004267633 0.11741951108 0.12721644342 0.10419320315
          0.088919736445 0.096062727273 0.10047651082 0.10782405734 0.11739075929 0.084466740489
          0.11485987902 0.12662941217 0.13147136569 0.088749244809 -0.091484300792 -0.10211860389
          -0.10515475273 -0.089978061616 -0.081035494804 -0.10195067525 -0.11638539284 -0.10980453342
          -0.10494520515 -0.0987207219 -0.089942477643 -0.1210058555 -0.091612361372 -0.081488490105
          -0.077460587025 -0.11642204225 -0.28342548013 -0.29463779926 -0.29720565677 -0.28255727887
          -0.2736581862 -0.29476994276 -0.30964618921 -0.30284520984 -0.29757788777 -0.29157564044
          -0.28275913 -0.31439986825 -0.28397679329 -0.27415376902 -0.2704513967 -0.30954483151
          -0.44993674755 -0.46210289001 -0.46422243118 -0.44980621338 -0.44059279561 -0.46229615808
          -0.47836470604 -0.47133004665 -0.46463477612 -0.45909315348 -0.45002096891 -0.48436835408
          -0.45023146272 -0.44089910388 -0.4376193583 -0.4782871902 -0.57019013166 -0.58358800411
          -0.58537489176 -0.57064324617 -0.56108343601 -0.58347928524 -0.60065627098 -0.59335625172
          -0.58516299725 -0.58035796881 -0.5706064105 -0.60746353865 -0.57007044554 -0.56111115217
          -0.5584102869 -0.60086750984 -0.62075960636 -0.63494503498 -0.63712179661 -0.62120938301
          -0.61093741655 -0.63464570045 -0.65268713236 -0.64531135559 -0.63639968634 -0.63149809837
          -0.62112790346 -0.66004556417 -0.62053906918 -0.61115282774 -0.6081829071 -0.65330153704
          -0.59623640776 -0.61155372858 -0.61469262838 -0.59558290243 -0.58410459757 -0.61137753725
          -0.63197791576 -0.62315309048 -0.61424976587 -0.60755360126 -0.59544485807 -0.63970851898
          -0.59566903114 -0.58370494843 -0.57994419336 -0.63224875927 -0.51071411371 -0.52814292908
          -0.53225201368 -0.5088621974 -0.49489489198 -0.52836275101 -0.55328476429 -0.54169899225
          -0.53298097849 -0.5231564045 -0.50849992037 -0.56089419127 -0.50973749161 -0.49352568388
          -0.48854827881 -0.55204302073 -0.38053786755 -0.40105521679 -0.40629556775 -0.3776178658
          -0.36072638631 -0.40165615082 -0.43192586303 -0.41732829809 -0.40805572271 -0.39502727985
          -0.37702682614 -0.44009098411 -0.37943339348 -0.35852003098 -0.35219606757 -0.42938148975
          -0.21550911665 -0.23845119774 -0.24463778734 -0.21167346835 -0.19265775383 -0.23907320201
          -0.27342739701 -0.25661763549 -0.24666231871 -0.23137536645 -0.21103960276 -0.28228953481
          -0.21441490948 -0.1903334409 -0.18291687965 -0.27051237226 -0.022924629971 -0.047861002386
          -0.055071849376 -0.018134139478 0.0031132237054 -0.048664540052 -0.086065895855 -0.067645631731
          -0.057331640273 -0.039975531399 -0.017624476925 -0.095909051597 -0.021839827299 0.0056195780635
          0.014439477585 -0.083098419011 0.19038109481 0.16208343208 0.15346084535 0.1961184442
          0.22031798959 0.16152714193 0.11998317391 0.14018322527 0.15158927441 0.17123840749
          0.19655454159 0.10900767148 0.19128741324 0.22226206958 0.23294080794 0.12242396176
          0.41334494948 0.38259625435 0.37288895249 0.41961163282 0.44604763389 0.38204798102
          0.33799907565 0.35928469896 0.37149173021 0.39270570874 0.41968950629 0.32592079043
          0.41342696548 0.44693049788 0.45916873217 0.33945906162 0.63613051176 0.6050568819
          0.59463971853 0.64248460531 0.66970300674 0.604775846 0.56028622389 0.58150947094
          0.59401643276 0.61539143324 0.64259654284 0.54763376713 0.63600242138 0.66984766722
          0.68261992931 0.56091624498 0.85715872049 0.82544350624 0.81489151716 0.86353939772
          0.89129215479 0.82524633408 0.78065061569 0.80177563429 0.81450879574 0.83586210012
          0.86356025934 0.76795458794 0.85697001219 0.8912551403 0.90432590246 0.78100240231
          0.91817718744 0.90132510662 0.90393340588 0.91237741709 0.92520743608 0.88980406523
          0.87296265364 0.88754087687 0.87969297171 0.89916038513 0.90542113781 0.87618309259
          0.89467984438 0.91160333157 0.9232185483 0.88776606321 0.89987438917 0.88657015562
          0.89221990108 0.90939325094 0.91464489698 0.90487647057 0.92070746422 0.82053613663
          0.82178926468 0.82361096144 0.82795786858 0.82728654146 0.82192111015 0.83251029253
          0.83729827404 0.83875656128 0.84846973419 0.84509629011 0.85232520103 0.83126777411
          0.65386146307 0.65179216862 0.65460246801 0.66107791662 0.65995138884 0.65780907869
          0.66479498148 0.66984415054 0.66971582174 0.67661672831 0.67219698429 0.67651307583
          0.66455608606 0.44610750675 0.44508051872 0.44699913263 0.45270451903 0.45028349757
          0.44942498207 0.45363047719 0.45885068178 0.45687901974 0.46271058917 0.4587995708
          0.46238565445 0.454069525 0.2372803688 0.23639428616 0.23877848685 0.24451623857
          0.2406720221 0.24141648412 0.24312770367 0.24849337339 0.2450710088 0.24867732823
          0.24580827355 0.24774295092 0.24458360672 0.070368364453 0.06992097944 0.074173822999
          0.082739412785 0.073638685048 0.078423209488 0.075147338212 0.083606220782 0.076044164598
          0.077803455293 0.077476687729 0.07675652951 0.081197626889 0 0
          0 0 0 0 0 0
          0 0 0 0 0
        </DataArray>
        <DataArray type="Float32" Name="uy" format="ascii" RangeMin="-0.48551443219" RangeMax="0.40656998754">
          -0.0055034062825 0.0036598129664 0.006654357072 0.012418993749 0.034958135337 0.041637599468
          0.038292393088 -0.0055739614181 0.0018941031303 0.0013372206595 0.010154819116 0.033676177263
          0.031954303384 0.023955713958 0.00014939601533 0.0037098517641 0.042032267898 0.029361758381
          0.013902769424 0.016925256699 0.038728281856 0.013573406264 0.038183953613 0.041723784059
          0.021386604756 0.01142451819 0.010212498717 0.044558756053 0.0067459866405 0.042767163366
          0.10721180588 0.077213853598 0.10651580989 -0.0061748763546 0.066549994051 0.017917735502
          0.085127688944 -0.066498629749 -0.075217291713 -0.030141348019 0.019889250398 0.012395720929
          0.047699835151 -0.1033526212 -0.0080213714391 -0.029566381127 0.048383090645 -0.051950585097
          0.030871005729 -0.030426220968 0.046797193587 -0.10336676985 -0.0078156786039 -0.074666507542
          0.013505455106 -0.028020806611 0.048928853124 0.01406740956 0.082926698029 -0.011758793145
          -0.057630635798 -0.013990624808 -0.07314325124 -0.043858677149 -0.14677648246 -0.15695944428
          -0.10229001194 -0.19181992114 -0.10170870274 -0.12894508243 -0.10236985236 -0.1921569556
          -0.15644225478 -0.099147103727 -0.04843576625 -0.047643728554 -0.10151773691 -0.04952993989
          -0.12036436051 -0.0858919397 -0.20740158856 -0.21949823201 -0.15440933406 -0.26106908917
          -0.1540672034 -0.18637518585 -0.15411382914 -0.26122131944 -0.21896831691 -0.15142543614
          -0.089993298054 -0.057207051665 -0.11867567152 -0.058430265635 -0.14106243849 -0.10186886787
          -0.24124750495 -0.25564473867 -0.17986957729 -0.303296417 -0.17963637412 -0.2169084847
          -0.17935034633 -0.30276700854 -0.25406849384 -0.17692784965 -0.1046140939 -0.037368431687
          -0.10599596798 -0.037662561983 -0.13143140078 -0.088203325868 -0.24409270287 -0.26090812683
          -0.17491105199 -0.31404805183 -0.17456178367 -0.21641291678 -0.17456114292 -0.31247860193
          -0.25757262111 -0.17183612287 -0.089425332844 0.011040931568 -0.064833492041 0.01185341645
          -0.093744941056 -0.046295065433 -0.21905064583 -0.23844449222 -0.14177367091 -0.29738521576
          -0.14143563807 -0.18815876544 -0.14143234491 -0.29503020644 -0.23394659162 -0.13911852241
          -0.045855715871 0.088112577796 0.0037961422931 0.089239649475 -0.028501508757 0.023710558191
          -0.16745914519 -0.1893375963 -0.081847734749 -0.25419867039 -0.081381224096 -0.13314606249
          -0.081930451095 -0.2512871027 -0.18392305076 -0.079370751977 0.024929577485 0.18101368845
          0.088739149272 0.18253149092 0.053140658885 0.10983592272 -0.098274938762 -0.12301789224
          -0.0053619495593 -0.19248726964 -0.0045470851474 -0.060976110399 -0.0062544094399 -0.18901085854
          -0.1163584739 -0.0029507258441 0.11133951694 0.27102851868 0.17218819261 0.2729934454
          0.13400283456 0.19422881305 -0.027918538079 -0.05507049337 0.071204073727 -0.12872566283
          0.072420977056 0.012049327604 0.069757625461 -0.12472289801 -0.047387462109 0.073451161385
          0.19615480304 0.3415055275 0.23672014475 0.34364339709 0.19591872394 0.25942775607
          0.02539130114 -0.0030893667135 0.12990084291 -0.080534934998 0.13099834323 0.067078739405
          0.12837773561 -0.076720826328 0.0041962745599 0.13139007986 0.26205015182 0.38766458631
          0.27663460374 0.38951465487 0.23336187005 0.30098411441 0.05288342014 0.023357138038
          0.1637480408 -0.05920349434 0.16468568146 0.096702776849 0.16230995953 -0.055990304798
          0.029495418072 0.16472858191 0.30339255929 0.40520852804 0.28985598683 0.40656998754
          0.24523222446 0.31566867232 0.058190684766 0.028401969001 0.17303702235 -0.057615261525
          0.17397382855 0.10336375237 0.17188499868 -0.055239174515 0.033056322485 0.17390330136
          0.31713467836 0.39337912202 0.27576264739 0.39413937926 0.2306189388 0.30230909586
          0.040946047753 0.011373865418 0.15770511329 -0.076545499265 0.15815748274 0.086290992796
          0.15635471046 -0.07492121309 0.014368399046 0.15771564841 0.30319443345 0.35795766115
          0.23907634616 0.3583419323 0.1936840117 0.26650008559 0.0015532615362 -0.028013013303
          0.1196468398 -0.11724827439 0.1203751266 0.047385763377 0.11849663407 -0.11607913673
          -0.025597663596 0.12018231302 0.26656791568 0.3027125299 0.18109880388 0.30249089003
          0.13499455154 0.20988951623 -0.061648078263 -0.091250047088 0.059245742857 -0.18279197812
          0.059726726264 -0.015011960641 0.058324273676 -0.1821847558 -0.089770786464 0.059833515435
          0.20892688632 0.23476547003 0.10994846374 0.23440058529 0.062605313957 0.139776811
          -0.13922889531 -0.16912567616 -0.014881795272 -0.2638386488 -0.014575268142 -0.091394305229
          -0.015438611619 -0.26344963908 -0.16811807454 -0.014093375765 0.13881582022 0.16217081249
          0.035744048655 0.16240546107 -0.012587717734 0.065702795982 -0.21760126948 -0.24795220792
          -0.090963423252 -0.344401896 -0.090946659446 -0.16888141632 -0.091009035707 -0.34373542666
          -0.24654741585 -0.090367004275 0.065722487867 0.091341800988 -0.035600539297 0.091537751257
          -0.084100708365 -0.0053273192607 -0.2900775969 -0.32046043873 -0.16303598881 -0.41729661822
          -0.16290776432 -0.24123091996 -0.16307979822 -0.41684284806 -0.31947082281 -0.16231390834
          -0.0056509017013 0.023724514991 -0.1035676375 0.023672705516 -0.15201491117 -0.073288999498
          -0.35812085867 -0.3883458972 -0.23097129166 -0.48551443219 -0.23070479929 -0.3092212379
          -0.23092888296 -0.48540446162 -0.38788634539 -0.23051907122 -0.07361266762 0.12933756411
          0.10366763175 0.12663029134 0.096164375544 0.11212652177 0.059013806283 0.053518231958
          0.080408446491 0.037031371146 0.081421814859 0.067396707833 0.079317957163 0.036012984812
          0.052763149142 0.082044795156 0.10690565407 0.039532020688 0.040724731982 0.039183113724
          0.040238678455 0.040156055242 0.03673639521 0.0379871279 -0.032980043441 -0.019028270617
          -0.031469739974 -0.036435477436 -0.020421605557 -0.034636009485 -0.014349379577 -0.015308633447
          -0.023709936067 -0.025857714936 0.0070502096787 0.0082440236583 -0.006468007341 0.0092196296901
          0.011156427674 -0.0059257834218 0.019556133077 0.02405237779 -0.0059019364417 -0.0056737358682
          0.0027959635481 0.0041075753979 -0.0070630474947 -0.0065073231235 0.021495399997 0.025810461491
          0.011774590239 0.014429455623 -0.0061977179721 -0.005868518725 -0.021539434791 -0.023239709437
          -0.049252029508 -0.033408567309 -0.047656387091 -0.028200848028 -0.038355451077 -0.0039008529857
          -0.0016372536775 -0.018858226016 0.010486233979 -0.018688855693 -0.0090951388702 -0.018964119256
          0.0122710336 0.0013868906535 -0.01855022274 -0.035978376865 -0.060827746987 -0.046303093433
          -0.059557005763 -0.041315875947 -0.050367105752 -0.019369820133 -0.01707312651 -0.032793030143
          -0.0065600215457 -0.03257515654 -0.023811347783 -0.032624270767 -0.0047284122556 -0.014106629416
          -0.031916029751 -0.048462603241 -0.06118581444 -0.048026487231 -0.060532033443 -0.043134715408
          -0.051236622036 -0.023129617795 -0.020718101412 -0.035564217716 -0.011046381667 -0.035460278392
          -0.027178138494 -0.035408616066 -0.0096973627806 -0.018387898803 -0.034389853477 -0.050313536078
          -0.04826311022 -0.037223342806 -0.048379320651 -0.032616857439 -0.039228327572 -0.015248337761
          -0.012672928162 -0.026269167662 -0.0040824254975 -0.026146655902 -0.018967051059 -0.026333654299
          -0.0037924386561 -0.011873702519 -0.02517240122 -0.039920624346 -0.028665371239 -0.018977737054
          -0.029520040378 -0.014352435246 -0.020184846595 0.0014870273881 0.0041062454693 -0.0088684214279
          0.011855170131 -0.0085640801117 -0.0021224219818 -0.0091795362532 0.01148926653 0.003854416078
          -0.0078421132639 -0.022079959512 -0.010944698006 -0.001388433855 -0.012476020493 0.0033772070892
          -0.0022058528848 0.019652334973 0.0227052439 0.0090017430484 0.030252486467 0.0092691872269
          0.015447747894 0.0089552365243 0.029227396473 0.021092334762 0.0096103725955 -0.0049154609442
          0.006261896342 0.015891391784 0.0038091083989 0.021068889648 0.015602016822 0.039042863995
          0.043273743242 0.027540793642 0.051018867642 0.027373978868 0.033956702799 0.027605079114
          0.048746161163 0.039573732764 0.027734449133 0.011726849712 0.028367778286 0.037861920893
          0.024980004877 0.043510966003 0.038600925356 0.062045846134 0.067259520292 0.050027150661
          0.075101085007 0.049878109246 0.056355707347 0.050272036344 0.071609333158 0.061703640968
          0.050202194601 0.033069957048 0.05410400033 0.06434956193 0.050699293613 0.070323579013
          0.06499158591 0.089687995613 0.095115341246 0.077165581286 0.1031987071 0.077069841325
          0.083747401834 0.077180527151 0.09948220104 0.089139692485 0.077074117959 0.059131149203
          0.080759108067 0.093210652471 0.077895179391 0.099437072873 0.092360801995 0.12210585922
          0.12757103145 0.10782913864 0.13730192184 0.10759402066 0.11536527425 0.1078748256
          0.13414858282 0.1220555529 0.10713485628 0.087977677584 0.10436481982 0.11997819692
          0.10227654874 0.12709197402 0.11753959954 0.15527161956 0.16046148539 0.13728946447
          0.17362052202 0.13750010729 0.14749723673 0.13685378432 0.17141620815 0.15678162873
          0.13671557605 0.11414692551 0.11233407259 0.13138438761 0.11053176969 0.13989980519
          0.12771801651 0.1738628298 0.1791408658 0.15198911726 0.19598050416 0.15240995586
          0.16504970193 0.15084311366 0.1945284009 0.17665494978 0.15143142641 0.12437820435
          0.093081131577 0.11513266712 0.091438852251 0.12439555675 0.11035127938 0.16282317042
          0.16844347119 0.13825146854 0.18769520521 0.13876290619 0.15302713215 0.13697770238
          0.18630491197 0.16630682349 0.13742214441 0.10750774294 0.040471140295 0.065507978201
          0.039379179478 0.075510017574 0.059436473995 0.11901654303 0.1251014173 0.0915998891
          0.14655420184 0.091938108206 0.10809338093 0.09034152329 0.14553651214 0.12347949296
          0.09043622762 0.057576339692 -0.045834116638 -0.017321441323 -0.046386048198 -0.0062086815014
          -0.024425715208 0.04140528664 0.047881804407 0.011454858817 0.071413107216 0.01184605062
          0.02985188365 0.010432437994 0.071191340685 0.047420438379 0.010878211819 -0.025370763615
          -0.15809802711 -0.12694989145 -0.15828756988 -0.11504943669 -0.13470460474 -0.064056009054
          -0.057000473142 -0.095747798681 -0.032189100981 -0.095691613853 -0.076228827238 -0.096304066479
          -0.032234083861 -0.057021994144 -0.096235506237 -0.13485728204 -0.27974039316 -0.24767558277
          -0.27981248498 -0.23540858924 -0.2552087605 -0.18319249153 -0.17568153143 -0.21560314298
          -0.15087227523 -0.21538169682 -0.19555048645 -0.21576356888 -0.15083086491 -0.17580331862
          -0.21562984586 -0.25557658076 -0.40583956242 -0.37350702286 -0.40574905276 -0.36118558049
          -0.38116189837 -0.30901935697 -0.30154702067 -0.34134709835 -0.27668607235 -0.34116894007
          -0.32129129767 -0.3414799571 -0.27651074529 -0.30131682754 -0.34130474925 -0.38122415543
          -0.031196320429 -0.018947161734 -0.030233187601 -0.014736633748 -0.022542933002 0.0051163155586
          0.0063882134855 -0.0074213026091 0.016869023442 -0.0070370039903 0.0010587831493 -0.0080356141552
          0.01836825721 0.0091998903081 -0.0069587505423 -0.021522954106 0.021813260391 0.024636091664
          0.030402643606 0.012972780503 0.017594497651 0.029839485884 0.022757271305 -0.028085272759
          -0.034467801452 -0.040608122945 -0.046651430428 -0.033567022532 -0.02086250484 -0.03288622573
          -0.048898052424 -0.032121092081 -0.042996298522 -0.019187672064 -0.030397508293 -0.016263676807
          -0.064206659794 -0.070325575769 -0.07631508261 -0.081146501005 -0.069905295968 -0.059443626553
          -0.069425188005 -0.081182725728 -0.06839928031 -0.075413197279 -0.059240799397 -0.066472448409
          -0.057168401778 -0.071442112327 -0.076738223433 -0.082306742668 -0.085498437285 -0.076659880579
          -0.068360224366 -0.076232165098 -0.084357380867 -0.075286000967 -0.07907500118 -0.068859361112
          -0.073070704937 -0.067354872823 -0.049181640148 -0.054312773049 -0.059238731861 -0.060170874
          -0.053593948483 -0.046986829489 -0.052923053503 -0.057054430246 -0.052160393447 -0.053056191653
          -0.049257740378 -0.050633326173 -0.04773555696 -0.014656848274 -0.022474313155 -0.028459403664
          -0.025749882683 -0.020192964002 -0.013539708219 -0.019262902439 -0.018674358726 -0.01865029335
          -0.015588026494 -0.021470922977 -0.018709940836 -0.018375772983 0 0
          0 0 0 0 0 0
          0 0 0 0 0
        </DataArray>
        <DataArray type="Float32" Name="uz" format="ascii" RangeMin="-0.089250534773" RangeMax="0.45394942164">
          0.080626986921 0.070730961859 0.078109569848 0.074681088328 0.07009729743 0.07729434222
          0.070067279041 0.071634717286 0.056824248284 0.062281154096 0.064042627811 0.067739531398
          0.062306124717 0.056628800929 0.084654994309 0.085802547634 0.082650125027 0.076805092394
          0.06280399859 0.058170326054 0.072234749794 0.054211914539 0.067685008049 0.0823995471
          0.084194369614 0.084704168141 0.069005668163 0.27248159051 0.25686043501 0.29874545336
          0.25767359138 0.24490895867 0.28322470188 0.21963199973 0.20972241461 0.22397127748
          0.21284876764 0.1852569133 0.20504996181 0.23570387065 0.18069221079 0.19954875112
          0.22678753734 0.15659143031 0.15504221618 0.21453234553 0.20651189983 0.17537403107
          0.1703761369 0.25726005435 0.24745839834 0.13028275967 0.13036325574 0.13638068736
          0.134168908 0.17227801681 0.16544340551 0.29299139977 0.27962818742 0.29630410671
          0.27070361376 0.31793913245 0.23521673679 0.24663238227 0.18664827943 0.19962674379
          0.2405449301 0.15034934878 0.22337929904 0.18341386318 0.25815147161 0.12898126245
          0.1435315758 0.18840798736 0.30334332585 0.32308909297 0.28400754929 0.33639237285
          0.25345301628 0.27484181523 0.18629385531 0.18894962966 0.24260109663 0.14061003923
          0.23187856376 0.19302800298 0.25351333618 0.1272136271 0.15384842455 0.21023772657
          0.30967724323 0.34565639496 0.29465252161 0.34926706553 0.27100995183 0.30183568597
          0.1880941987 0.17925807834 0.24340066314 0.13532263041 0.24041005969 0.20516614616
          0.24640029669 0.13177497685 0.16974978149 0.23465596139 0.31120818853 0.35883042216
          0.30042275786 0.35232597589 0.28617477417 0.32363197207 0.19459265471 0.17484582961
          0.24396701157 0.13934494555 0.24917985499 0.22083447874 0.23863346875 0.14609515667
          0.19209997356 0.25997945666 0.30640697479 0.36021736264 0.30069285631 0.34425857663
          0.29722228646 0.33723795414 0.20644958317 0.17774276435 0.2445782572 0.15462349355
          0.25767073035 0.23897743225 0.23135793209 0.17093528807 0.22011873126 0.2836202383
          0.29500496387 0.35150137544 0.29657229781 0.32787686586 0.30350580812 0.34216785431
          0.22234550118 0.18815286458 0.24616196752 0.17917723954 0.26528295875 0.25779032707
          0.22668863833 0.20313002169 0.25059106946 0.30351734161 0.28022888303 0.3372118175
          0.29213434458 0.31071478128 0.30634522438 0.33960428834 0.24230509996 0.20793098211
          0.25241160393 0.21035286784 0.27371796966 0.27558386326 0.23056727648 0.23703530431
          0.27777761221 0.31675767899 0.26988014579 0.3161418736 0.28773874044 0.29248905182
          0.30503872037 0.32731819153 0.26726433635 0.23971751332 0.2644880116 0.25065010786
          0.2833237052 0.29220372438 0.24508415163 0.27405697107 0.30094197392 0.32134076953
          0.26527783275 0.28780648112 0.28208592534 0.27159780264 0.29903689027 0.30555382371
          0.29489257932 0.27964267135 0.2796189785 0.29746335745 0.29256659746 0.30672281981
          0.26656329632 0.3131519556 0.32106611133 0.31818988919 0.26342085004 0.25909638405
          0.27613776922 0.2515168488 0.29109436274 0.28182142973 0.32013043761 0.3179692924
          0.29404056072 0.34092903137 0.29994645715 0.31824085116 0.28797313571 0.34805491567
          0.33705833554 0.31168743968 0.26262429357 0.23716561496 0.27237769961 0.23818580806
          0.28441354632 0.26231402159 0.34056690335 0.3500341177 0.30712220073 0.37536677718
          0.30627009273 0.32664403319 0.30807125568 0.37422794104 0.34723392129 0.30442887545
          0.26534453034 0.22174941003 0.27131167054 0.23116572201 0.27915486693 0.24673764408