<VTKFile type="UnstructuredGrid" version="1.0" byte_order="LittleEndian" header_type="UInt64">
  <UnstructuredGrid>
    <Piece NumberOfPoints="791" NumberOfCells="973">
      <PointData>
        <DataArray type="Float32" Name="ux" format="ascii" RangeMin="0" RangeMax="0.57746255398">
          0.40158128738 0.48771554232 0.28776174784 0.15140773356 0.20046783984 0.41836318374
          0.51637458801 0.229048118 0.28411614895 0.45911887288 0.28459858894 0.39073756337
          0.071640960872 0.079886458814 0.45605483651 0.059082180262 0.42879459262 0.48074907064
          0.41697952151 0.18809594214 0.062343403697 0.2567691505 0.16978949308 0.57129997015
          0.25920122862 0.53167295456 0.5713827014 0.29848399758 0.44914951921 0.1183829084
          0.1075912267 0.46492305398 0.33724558353 0.21204045415 0.32814231515 0.41647779942
          0.16531658173 0.41128391027 0.45952033997 0.37082654238 0.47551453114 0.42257362604
          0.099634230137 0.28400668502 0.31175300479 0.35499444604 0.1355175972 0.067374907434
          0.2795136869 0.1081809178 0.33693173528 0.33288389444 0.42661160231 0.2490645349
          0.25197646022 0.35435828567 0.069419234991 0.29011163116 0.12262242287 0.54941862822
          0.35912689567 0.17762158811 0.40308436751 0.45688068867 0.46660062671 0.17314390838
          0.19741389155 0.47744059563 0.28276851773 0.12270180881 0.1142039299 0.46136805415
          0.5206464529 0.57011294365 0.49559822679 0.44354331493 0.49041819572 0.26080429554
          0.37783524394 0.4277137816 0.50690454245 0.38900530338 0.38489624858 0.31865796447
          0.31260666251 0.45159363747 0.47460103035 0.46431192756 0.19830915332 0.54019355774
          0.14130198956 0.15303385258 0.3908829689 0.081121571362 0.29521909356 0.37379458547
          0.2598130703 0.52411061525 0.23548200727 0.57401895523 0.42320436239 0.096499882638
          0.15391898155 0.088777817786 0.44348856807 0.1448379308 0.44386190176 0.15514570475
          0.29209265113 0.19798284769 0.1101038605 0.17447181046 0.57411628962 0.23916696012
          0.33176001906 0.43877318501 0.18580037355 0.52421492338 0.40147548914 0.069825522602
          0.4799849093 0.4776237905 0.059005510062 0.17371949553 0.25468239188 0.21779102087
          0.063653148711 0.29283741117 0.52717977762 0.52237004042 0.14417478442 0.15505021811
          0.14595632255 0.46462756395 0.22087109089 0.57051539421 0.50449168682 0.067021459341
          0.27519369125 0.38377359509 0.15817216039 0.39702862501 0.21696227789 0.26528826356
          0.45178088546 0.10805638134 0.35426023602 0.54455220699 0.29074957967 0.46147084236
          0.54033535719 0.10501898825 0.10105384886 0.55224531889 0.44385123253 0.086092993617
          0.41900297999 0.35904079676 0.37523838878 0.46558004618 0.37318721414 0.49680447578
          0.48805001378 0.26813542843 0.13781379163 0.56836128235 0.2151324302 0.56209242344
          0.38945743442 0.4095338881 0.57045149803 0.39271241426 0.074892573059 0.26376000047
          0.37239488959 0.074120730162 0.17155556381 0.16081249714 0.17525959015 0.366522789
          0.39935654402 0.56120312214 0.2727047205 0.067351683974 0.53970509768 0.38573244214
          0.51052588224 0.19358350337 0.17747095227 0.10928449035 0.097118832171 0.25838336349
          0.17358733714 0.52538996935 0.30281168222 0.32970154285 0.11059781164 0.21585273743
          0.15086455643 0.22141872346 0.26680907607 0.11149523407 0.23486605287 0.43825250864
          0.17457687855 0.34069520235 0.56032037735 0.50013047457 0.15137012303 0.28539511561
          0.4759607017 0.3023981154 0.40437531471 0.12149216235 0.14741927385 0.47436600924
          0.51885855198 0.51114076376 0.12049316615 0.074689261615 0.40297147632 0.15814121068
          0.51911503077 0.15951272845 0.52618759871 0.29317477345 0.5675393939 0.3545319736
          0.38933521509 0.45135003328 0.21262066066 0.32254105806 0.389180094 0.29815137386
          0.2654953599 0.11359677464 0.28999531269 0.38537290692 0.47744953632 0.21247930825
          0.37148693204 0.54941886663 0.093612141907 0.3433483541 0.39503073692 0.13729166985
          0.42031818628 0.49693739414 0.35968756676 0.29906401038 0.28710108995 0.15478396416
          0.52515351772 0.4874804318 0.56336563826 0.19989338517 0.18332067132 0.49765613675
          0.45788756013 0.45666030049 0.18190199137 0.074851371348 0.24610067904 0.13375276327
          0.22885486484 0.34140104055 0.20244348049 0.28080251813 0.40771600604 0.46087637544
          0.17433561385 0.55467998981 0.4112188518 0.53894680738 0.50210183859 0.33738169074
          0.44443807006 0.55827397108 0.39938908815 0.55089753866 0.22884535789 0.52049511671
          0.3874129355 0.19182497263 0.26559427381 0.3647121191 0.28358304501 0.095803841949
          0.29929548502 0.05793717131 0.076595947146 0.548140347 0.10906267911 0.53852140903
          0.22976700962 0.24491429329 0.31338015199 0.5239251852 0.48479881883 0.2695248723
          0.43544015288 0.53600019217 0.38092234731 0.29268756509 0.4532019496 0.12343794107
          0.15268221498 0.53162503242 0.40038198233 0.4329572618 0.3205178082 0.55068230629
          0.25694641471 0.48707193136 0.13702057302 0.42543312907 0.53647208214 0.40995177627
          0.1144008562 0.57462626696 0.54768389463 0.34064024687 0.17236803472 0.525608778
          0.20290474594 0.081581749022 0.55747520924 0.15889085829 0.28101971745 0.18324624002
          0.4373947382 0.49522447586 0.22951231897 0.2058069557 0.52360707521 0.37367966771
          0.4060190618 0.2333689034 0.13495138288 0.34836471081 0.47050583363 0.47934952378
          0.089578844607 0.572465837 0.43141275644 0.47946110368 0.21582564712 0.11360224336
          0.39068260789 0.33131673932 0.49438351393 0.25553438067 0.46825098991 0.36948409677
          0.55457830429 0.30533695221 0.092518083751 0.55712455511 0.42350018024 0.25756320357
          0.53315675259 0.47311943769 0.48809531331 0.5661200881 0.28009524941 0.41688787937
          0.23319326341 0.36028793454 0.48950356245 0.15232260525 0.095131739974 0.24146661162
          0.47536078095 0.54225677252 0.40075278282 0.20597055554 0.1157071963 0.091317817569
          0.45553737879 0.22544185817 0.1298995316 0.47242704034 0.40864944458 0.57245576382
          0.26533949375 0.23149482906 0.55773639679 0.18283858895 0.30030012131 0.15399725735
          0.56928604841 0.38186171651 0.39706236124 0.40291711688 0.51865893602 0.35896354914
          0.5070322752 0.2100405544 0.087214305997 0.28673669696 0.32971996069 0.16227199137
          0.28751239181 0.19914202392 0.11972752959 0.17619542778 0.180562675 0.49540373683
          0.21226744354 0.29592624307 0.23471385241 0.39677324891 0.45191392303 0.55328315496
          0.44165527821 0.41185736656 0.4455293417 0.57425129414 0.40008586645 0.55375540257
          0.079214565456 0.46806284785 0.10494409502 0.10790915042 0.40785169601 0.26142761111
          0.48116710782 0.32877886295 0.097653388977 0.56796097755 0.17948465049 0.13415132463
          0.4273211658 0.21043746173 0.53335809708 0.20097886026 0.34303897619 0.40046161413
          0.31727662683 0.49593278766 0.34042242169 0.54942888021 0.10057846457 0.2679502666
          0.36486157775 0.51716917753 0.31081008911 0.44381925464 0.16126717627 0.093094080687
          0.099293790758 0.17573839426 0.077591486275 0.08914642036 0.28705865145 0.19282191992
          0.57400721312 0.076166763902 0.19514997303 0.1696972847 0.45095202327 0.44219842553
          0.49074190855 0.50564557314 0.44534149766 0.5110450387 0.29371505976 0.28799125552
          0.42382025719 0.33521649241 0.43885919452 0.49867141247 0.53064143658 0.19020202756
          0.3252992034 0.15954083204 0.55959188938 0.50991541147 0.36542209983 0.44271361828
          0.41925564408 0.23739600182 0.41255134344 0.31060966849 0.064409673214 0.57635658979
          0.31412816048 0.50299668312 0.51917803288 0.10767614841 0.47685745358 0.41141319275
          0.57502627373 0.46752265096 0.41936320066 0.25460484624 0.078736327589 0.56474047899
          0.5766196847 0.45763060451 0.43362352252 0.31794083118 0.18299658597 0.1258148849
          0.058269940317 0.3990483284 0.41105675697 0.50578773022 0.45223215222 0.1521243155
          0.18515527248 0.55750054121 0.32964527607 0.16762797534 0.12337779999 0.38409146667
          0.28157439828 0.20046535134 0.09078078717 0.50930064917 0.21522736549 0.35313412547
          0.080163493752 0.1195364818 0.18611501157 0.51598143578 0.34515613317 0.44814532995
          0.15513446927 0.24819467962 0.26538994908 0.22205071151 0.49805545807 0.23773442209
          0.17006723583 0.12156327069 0.17793762684 0.57493108511 0.11342924088 0.31085124612
          0.26428559422 0.33158111572 0.155962497 0.29670366645 0.1580452919 0.25493174791
          0.43892726302 0.45435658097 0.57436001301 0.47888895869 0.19478882849 0.40608906746
          0.16359087825 0.50940257311 0.31043303013 0.35511851311 0.085252024233 0.42990800738
          0.34337598085 0.45727592707 0.37613922358 0.15123920143 0.51115202904 0.11612381041
          0.17143391073 0.16859707236 0.42002210021 0.25807392597 0.33163654804 0.41645878553
          0.38535609841 0.26283475757 0.55145585537 0.54498064518 0.37226217985 0.38949161768
          0.4132386744 0.41460466385 0.17564581335 0.15065743029 0.29328009486 0.24855022132
          0.097877085209 0.10116842389 0.39870992303 0.40361782908 0.1537463069 0.073387108743
          0.41139549017 0.37398278713 0.3805192709 0.31648394465 0.51895678043 0.43437314034
          0.085249900818 0.1283249706 0.32421433926 0.48183891177 0.32183629274 0.24627733231
          0.19729612768 0.44958603382 0.16307348013 0.43749967217 0.20199289918 0.3468746841
          0.57071846724 0.2448810488 0.29987978935 0.28646209836 0.44292518497 0.56495034695
          0.38659492135 0.06850386411 0.41024130583 0.17857474089 0.078659467399 0.52422326803
          0.43075969815 0.097280159593 0.20006920397 0.41241380572 0.33303162456 0.20126804709
          0.16182349622 0.31922617555 0.36427563429 0.45560356975 0.30771198869 0.067353643477
          0.36442017555 0.18750819564 0.20087377727 0.19112583995 0.51589506865 0.19669993222
          0.39138817787 0.5755521059 0.52489215136 0.52074426413 0.35631498694 0.22491692007
          0.46169343591 0.1959207803 0.22977109253 0.29372742772 0.33487990499 0.53543323278
          0.26173716784 0.15881377459 0.28072744608 0.17494393885 0.21354551613 0.33635085821
          0.1571290195 0.37345054746 0.4082275629 0.086444593966 0.2673625648 0.36170443892
          0.51301014423 0.55419421196 0.16385258734 0.39206212759 0.18342155218 0.42675334215
          0.48704487085 0.075137287378 0.1963404268 0.18297481537 0.46745717525 0.17713688314
          0.19903893769 0.31379288435 0.26363581419 0.24094614387 0.30501270294 0.54659277201
          0.22833585739 0.087861090899 0.31383380294 0.46130058169 0.23569080234 0.34590056539
          0.16878135502 0.13997355103 0.1574151963 0.22611162066 0.18298095465 0.36769783497
          0.57530283928 0.11478527635 0.44780698419 0.26241713762 0.49138781428 0.49509650469
          0.13155709207 0.13024768233 0.22179667652 0.25468808413 0.3176817596 0.25916785002
          0.34382390976 0.37205666304 0.44183364511 0.22096283734 0.32067316771 0.45338886976
          0.21062095463 0.23079156876 0.25115811825 0.42676907778 0.11306765676 0.53193026781
          0.24593067169 0.48680582643 0.50058239698 0.44521683455 0.32973319292 0.28986757994
          0.46086207032 0.39333561063 0.1170803085 0.23337060213 0.34801873565 0.12077337503
          0.29539898038 0.076287746429 0.071440286934 0.468888551 0.32489839196 0.52691054344
          0.56516176462 0.23538531363 0.11962392926 0.49216419458 0.33770543337 0.33579841256
          0.56707513332 0.48403221369 0.26780724525 0.52497279644 0.23849593103 0.37541142106
          0.26272964478 0.44889205694 0.28158259392 0.57680433989 0.25656974316 0.060606945306
          0.49313881993 0.079770423472 0.5391125083 0.2142842561 0.14507520199 0.26292639971
          0.57090967894 0.49916884303 0.47495433688 0.32661515474 0.3480501771 0.44843280315
          0.3881149292 0.13372536004 0.51178389788 0.32486993074 0.305757761 0.18923328817
          0.50879460573 0.38995486498 0.12282446027 0.47588601708 0.23023702204 0.072056867182
          0.48320683837 0.57746255398 0.4160130322 0.13213513792 0 0
          0 0 0 0 0 0
          0 0 0 0 0
        </DataArray>
        <DataArray type="Float32" Name="uy" format="ascii" RangeMin="0" RangeMax="0.57740348577">
          0.32663720846 0.42130801082 0.33263790607 0.57603818178 0.17775140703 0.41893044114
          0.36429077387 0.14903131127 0.28246125579 0.45961913466 0.39831334352 0.13213713467
          0.37264460325 0.30834850669 0.50821644068 0.067892283201 0.45238220692 0.18645377457
          0.51643127203 0.1860704422 0.47190767527 0.5144289732 0.25451520085 0.20276451111
          0.29472282529 0.11946764588 0.37902501225 0.52813798189 0.16501520574 0.19952210784
          0.55721396208 0.24789834023 0.45489436388 0.52797168493 0.15689648688 0.28317523003
          0.064199760556 0.46115610003 0.28742930293 0.41519278288 0.066572591662 0.49611234665
          0.37633758783 0.15632124245 0.52096760273 0.31068882346 0.098957329988 0.28639283776
          0.54536855221 0.37976917624 0.30245360732 0.19120009243 0.11698547006 0.31994259357
          0.36009213328 0.48761641979 0.18634276092 0.51853108406 0.51985025406 0.09895490855
          0.094658799469 0.16388867795 0.26800504327 0.15169274807 0.21728634834 0.33571371436
          0.30628532171 0.18443244696 0.076540954411 0.45850837231 0.36824479699 0.52343767881
          0.24168352783 0.079970017076 0.50349140167 0.46435621381 0.20389474928 0.33826947212
          0.17672209442 0.063353642821 0.52558946609 0.4159719646 0.41429796815 0.060638479888
          0.071980133653 0.46314802766 0.4357444942 0.33164930344 0.5353088975 0.43922305107
          0.13311892748 0.11245387793 0.48389092088 0.15118572116 0.067160636187 0.098170414567
          0.088959082961 0.43165266514 0.30546346307 0.48745188117 0.34978577495 0.17124889791
          0.070822067559 0.17772176862 0.14947029948 0.31445971131 0.16602364182 0.55920648575
          0.38137161732 0.50574105978 0.46700960398 0.47906708717 0.23256358504 0.26394197345
          0.066181018949 0.23771756887 0.54456758499 0.49323257804 0.086004473269 0.34964680672
          0.36804553866 0.091290600598 0.37780755758 0.26165241003 0.3674633503 0.14859959483
          0.44781699777 0.44065201283 0.23988173902 0.51733022928 0.50439494848 0.073439896107
          0.26844790578 0.37850904465 0.35053482652 0.17521268129 0.307646662 0.088819928467
          0.31696274877 0.14647981524 0.22209094465 0.55018258095 0.13155418634 0.17880512774
          0.34814405441 0.34682023525 0.15804071724 0.57466083765 0.32316973805 0.083268024027
          0.1646823436 0.40839368105 0.45830178261 0.33610966802 0.096191465855 0.41246020794
          0.17791695893 0.40314114094 0.38172784448 0.36613988876 0.4611787796 0.20143924654
          0.31541731954 0.097434855998 0.31647798419 0.32666778564 0.171360448 0.54545456171
          0.36682251096 0.2066180408 0.49333611131 0.2141328156 0.51721316576 0.19765552878
          0.54560482502 0.55518847704 0.29479846358 0.43749579787 0.53295606375 0.51927518845
          0.46734628081 0.47050854564 0.23685006797 0.061131294817 0.35649737716 0.27691963315
          0.11108835042 0.25708979368 0.1935608834 0.41517448425 0.34078148007 0.50443220139
          0.3269636631 0.50693005323 0.14847287536 0.32272899151 0.46076327562 0.09931692481
          0.068847969174 0.57581222057 0.57306289673 0.26359960437 0.30938020349 0.43906828761
          0.11783912033 0.502792418 0.27997532487 0.17666095495 0.16904194653 0.070250533521
          0.55857795477 0.08774163574 0.1774187088 0.20727132261 0.55525755882 0.38509210944
          0.3168143034 0.083947531879 0.21144120395 0.16569942236 0.5016977787 0.55928140879
          0.42542505264 0.17028574646 0.23307277262 0.34390181303 0.53490757942 0.2219273746
          0.081523582339 0.18624351919 0.1286611259 0.42699408531 0.26577249169 0.24459928274
          0.45020502806 0.12813647091 0.36259141564 0.2076601088 0.14141486585 0.060671888292
          0.36179602146 0.55257821083 0.1402348429 0.20402476192 0.5422694087 0.072774916887
          0.375746876 0.21964383125 0.56549364328 0.16566431522 0.15639798343 0.20681725442
          0.16128884256 0.22390058637 0.43412962556 0.51011437178 0.31365609169 0.21781460941
          0.28870338202 0.29282444715 0.26122152805 0.4818828702 0.55514967442 0.15264375508
          0.54446172714 0.55243980885 0.28684148192 0.43704408407 0.12232686579 0.4176377058
          0.49794468284 0.47116187215 0.45214682817 0.46288266778 0.40941646695 0.11144601554
          0.54417169094 0.29544359446 0.21833103895 0.15095813572 0.097501054406 0.28271353245
          0.47577768564 0.56219375134 0.32049715519 0.52303481102 0.39765113592 0.064885042608
          0.54925447702 0.558840096 0.17724721134 0.27909302711 0.3906519711 0.3455798924
          0.42719116807 0.41802492738 0.55138272047 0.22350308299 0.56202459335 0.49512985349
          0.55393832922 0.35040670633 0.38175806403 0.35475996137 0.21180899441 0.44776841998
          0.25581032038 0.23491686583 0.37179726362 0.20496794581 0.42781338096 0.35209277272
          0.45313850045 0.34312069416 0.42945992947 0.54775941372 0.29488369823 0.57157313824
          0.49042150378 0.071631997824 0.27492147684 0.25143530965 0.087250970304 0.283272475
          0.3975687623 0.35751986504 0.54249310493 0.30064174533 0.14971470833 0.14154392481
          0.26488724351 0.20230336487 0.19836381078 0.10397250205 0.34984594584 0.34463143349
          0.53328573704 0.50219810009 0.33191695809 0.27932748199 0.12604916096 0.15285360813
          0.059249274433 0.56746000051 0.45108020306 0.33603170514 0.54661482573 0.43616950512
          0.20982137322 0.1596416533 0.56653892994 0.34658446908 0.073735699058 0.21450939775
          0.15672768652 0.57740348577 0.27634343505 0.55316013098 0.56535875797 0.11005531996
          0.098102204502 0.36396351457 0.076837517321 0.27353084087 0.12633258104 0.28200781345
          0.54671770334 0.14792539179 0.21386805177 0.47678053379 0.18803071976 0.22737953067
          0.55376285315 0.32987123728 0.53091448545 0.48214375973 0.45849999785 0.54205983877
          0.40799754858 0.32334303856 0.27125790715 0.27342641354 0.44436907768 0.29920265079
          0.072963990271 0.22517828643 0.40280747414 0.38132172823 0.2361728102 0.38597077131
          0.45592933893 0.42427319288 0.45568558574 0.38920691609 0.50143676996 0.47302275896
          0.25483879447 0.15834583342 0.53228908777 0.40591475368 0.42877936363 0.52568989992
          0.44234994054 0.37012717128 0.31658348441 0.15206293762 0.53595018387 0.25975781679
          0.059912696481 0.29199317098 0.30078265071 0.4261302352 0.42985844612 0.49502944946
          0.55562126637 0.36283716559 0.34259626269 0.28785052896 0.17111234367 0.29079991579
          0.21099770069 0.092699997127 0.21441662312 0.35764452815 0.075183227658 0.16585972905
          0.2382556051 0.07059391588 0.39120978117 0.18921326101 0.083779610693 0.26149356365
          0.20441238582 0.34094101191 0.076859205961 0.39586472511 0.38395273685 0.27668380737
          0.52972584963 0.11159155518 0.16392737627 0.093658581376 0.40568447113 0.51619327068
          0.28063115478 0.23387338221 0.53371679783 0.28779643774 0.51495575905 0.31411716342
          0.49678477645 0.36540403962 0.37005642056 0.52437728643 0.43743884563 0.49555110931
          0.50143623352 0.22697238624 0.15785302222 0.11102092266 0.21659325063 0.38699537516
          0.24604129791 0.33244803548 0.41350761056 0.50045794249 0.24995310605 0.37600103021
          0.23186461627 0.20331373811 0.51096779108 0.49696397781 0.13624587655 0.11643432081
          0.52474755049 0.31034111977 0.34376612306 0.45569491386 0.23781678081 0.53430896997
          0.44417023659 0.29699206352 0.55634665489 0.1696203649 0.55369257927 0.13110072911
          0.49269589782 0.38277447224 0.18033248186 0.45056322217 0.23499466479 0.42223826051
          0.068232171237 0.23192363977 0.31504043937 0.2254100889 0.42946711183 0.094936653972
          0.47091817856 0.4023694396 0.34546995163 0.29516202211 0.42254924774 0.15981201828
          0.47443887591 0.25579366088 0.52561992407 0.44076159596 0.49079158902 0.46178564429
          0.34729611874 0.46478769183 0.50791609287 0.47041627765 0.29356178641 0.20448215306
          0.42190873623 0.56654143333 0.33401718736 0.33995932341 0.37931010127 0.49262949824
          0.46890169382 0.35681402683 0.06001310423 0.54414594173 0.52173149586 0.24686278403
          0.17971602082 0.13610245287 0.53584653139 0.35188168287 0.22245173156 0.53466391563
          0.11294604838 0.25087934732 0.23351934552 0.19607554376 0.43625283241 0.33550342917
          0.15596945584 0.47900271416 0.26294776797 0.16122810543 0.27277830243 0.41567692161
          0.26179879904 0.32756724954 0.28928279877 0.16236375272 0.44797170162 0.2361188978
          0.17755354941 0.32923790812 0.2797524333 0.31231668591 0.27929824591 0.42961108685
          0.09140727669 0.081266269088 0.10458935797 0.15597595274 0.41259354353 0.45833149552
          0.38636904955 0.3320260942 0.1266079098 0.14478835464 0.5644698143 0.19674549997
          0.44895607233 0.14091676474 0.1992687732 0.52435040474 0.2663064301 0.3021505475
          0.43149602413 0.13872504234 0.42903324962 0.5646033287 0.26274836063 0.50304847956
          0.3058874011 0.18029506505 0.16598032415 0.49727016687 0.50753360987 0.40025424957
          0.30810567737 0.40707024932 0.11175522208 0.51187473536 0.25557881594 0.088091358542
          0.42640018463 0.098362796009 0.57062506676 0.43812400103 0.43116211891 0.4932526648
          0.0899079144 0.44962254167 0.36045244336 0.22658807039 0.066907532513 0.33281856775
          0.22721016407 0.15163162351 0.41685551405 0.28687208891 0.385001719 0.24330359697
          0.52730286121 0.34445235133 0.099803589284 0.19148884714 0.41730386019 0.18442894518
          0.46927964687 0.57028436661 0.45533967018 0.49137303233 0.52057427168 0.53940218687
          0.14325354993 0.364110291 0.16683828831 0.41390472651 0.50045841932 0.52362900972
          0.47084081173 0.44016385078 0.24340581894 0.10718216747 0.25979828835 0.41533765197
          0.47832533717 0.065501965582 0.082499884069 0.17741405964 0.33608514071 0.54364490509
          0.2485921979 0.086870186031 0.40436968207 0.19173902273 0.29109999537 0.41667056084
          0.47330337763 0.13650819659 0.17713902891 0.28875541687 0.47024932504 0.488691926
          0.32227572799 0.43687573075 0.42904105783 0.56453537941 0.52334153652 0.06339392066
          0.14200158417 0.57416063547 0.46393740177 0.52748519182 0.47341188788 0.51675719023
          0.52566558123 0.079300753772 0.26941120625 0.14488378167 0.4184910059 0.49567437172
          0.44115549326 0.39768800139 0.56301355362 0.27685475349 0.15411455929 0.52877634764
          0.10851115733 0.25108119845 0.34794995189 0.18824869394 0.47639879584 0.063528120518
          0.53716880083 0.35085356236 0.33181136847 0.56861352921 0.51363706589 0.30694779754
          0.25094097853 0.41164180636 0.3675377965 0.54748857021 0.25551635027 0.15267297626
          0.41238847375 0.19859388471 0.063454322517 0.55836892128 0.42740294337 0.38503748178
          0.45458400249 0.51153057814 0.53698706627 0.18790668249 0.52151656151 0.26147717237
          0.5012845397 0.14600512385 0.40430089831 0.51519888639 0.1670434922 0.46031987667
          0.3168412447 0.55593705177 0.14184075594 0.45900574327 0.34852311015 0.33000338078
          0.55856227875 0.1951661855 0.32440641522 0.2335318476 0.10106831789 0.44315591455
          0.21031977236 0.48812133074 0.57523053885 0.41396647692 0.49813258648 0.30533707142
          0.50760602951 0.21168893576 0.20491823554 0.49853718281 0.2457267344 0.20006670058
          0.16635036469 0.47904202342 0.48182368279 0.48228493333 0.13239979744 0.30343946815
          0.53100174665 0.54352033138 0.39862790704 0.083873949945 0.093332260847 0.51051855087
          0.43200704455 0.53490048647 0.26305264235 0.49569660425 0.3654666245 0.48023188114
          0.24938040972 0.10367130488 0.1891874969 0.33021271229 0.3952691257 0.46524843574
          0.21418322623 0.50446540117 0.24469000101 0.24790163338 0.31959754229 0.18112185597
          0.13793683052 0.53018301725 0.14172671735 0.38360869884 0.10320849717 0.32614699006
          0.43856889009 0.091125562787 0.55645591021 0.34814938903 0 0
          0 0 0 0 0 0
          0 0 0 0 0
        </DataArray>
        <DataArray type="Float32" Name="uz" format="ascii" RangeMin="0" RangeMax="0.57766354084">
          0.21094115078 0.20692969859 0.077938608825 0.53609138727 0.08564299345 0.40010264516
          0.37296825647 0.24928753078 0.19970017672 0.25788709521 0.56440979242 0.24282585084
          0.14924153686 0.40803745389 0.38710939884 0.54633253813 0.52862024307 0.14448145032
          0.49376535416 0.15601347387 0.53409951925 0.47397947311 0.1043445617 0.38770836592
          0.3669655323 0.3765669167 0.5241574049 0.14071318507 0.54852503538 0.40288776159
          0.53507423401 0.55371254683 0.5111566782 0.18543170393 0.079262852669 0.3188637495
          0.38410103321 0.066140398383 0.4186424911 0.52877742052 0.40325704217 0.31282383204
          0.53995078802 0.38708630204 0.13446415961 0.060855552554 0.19844321907 0.39757928252
          0.15334972739 0.28096830845 0.43799710274 0.090439751744 0.20534585416 0.36195877194
          0.43978586793 0.1076214239 0.55378389359 0.43200072646 0.40481153131 0.48405632377
          0.56650465727 0.36488431692 0.43683186173 0.3825891614 0.11158844084 0.20588333905
          0.57126432657 0.11156437546 0.18668243289 0.16415314376 0.31016746163 0.47992655635
          0.19423936307 0.47651228309 0.20611062646 0.31512495875 0.52892428637 0.20059262216
          0.29741451144 0.57129579782 0.36000937223 0.39494132996 0.14131441712 0.10764657706
          0.54788243771 0.55158990622 0.29454407096 0.12047246099 0.22856415808 0.26470947266
          0.47683337331 0.3643014133 0.47913807631 0.47778224945 0.26748207211 0.38743579388
          0.28685232997 0.50576812029 0.55143821239 0.13634353876 0.53234702349 0.45781356096
          0.3577105701 0.074856422842 0.11074696481 0.27599793673 0.51032912731 0.54542058706
          0.16445113719 0.46097281575 0.08220718801 0.37408596277 0.15390823781 0.1006051749
          0.10988159478 0.12213598937 0.19077719748 0.48027598858 0.42216998339 0.17538887262
          0.34459322691 0.26799964905 0.33924669027 0.42379969358 0.30203613639 0.22462835908
          0.4546251893 0.57206982374 0.47620618343 0.10183956474 0.26485675573 0.28695228696
          0.072671674192 0.55503934622 0.43895334005 0.53952538967 0.078279316425 0.35335996747
          0.48414984345 0.37748146057 0.31796553731 0.40298143029 0.086718507111 0.43734413385
          0.51760274172 0.071023076773 0.1137258485 0.10609403253 0.1350595504 0.50595092773
          0.089738033712 0.47056424618 0.343447119 0.097890935838 0.088429234922 0.4176145196
          0.39044490457 0.16660195589 0.11361625046 0.081390433013 0.093321844935 0.33071583509
          0.30615985394 0.14810971916 0.41292202473 0.17558471859 0.073949433863 0.53110331297
          0.20921657979 0.52018612623 0.27394333482 0.33075636625 0.2339105159 0.22358453274
          0.45173025131 0.455093503 0.45986691117 0.44872796535 0.14599470794 0.27940621972
          0.43011331558 0.20506477356 0.51013541222 0.058539874852 0.49340134859 0.35177889466
          0.47094094753 0.22061537206 0.54208236933 0.26216426492 0.54856801033 0.54669982195
          0.53639781475 0.49338138103 0.11892337352 0.21903257072 0.16075722873 0.54855936766
          0.28360706568 0.49676796794 0.11516313255 0.32276067138 0.29136568308 0.33433037996
          0.21057398617 0.48383367062 0.14411599934 0.47144007683 0.3755273819 0.48012307286
          0.40253996849 0.51749044657 0.19850921631 0.35041439533 0.11414239556 0.25212678313
          0.5235966444 0.10030128807 0.32184788585 0.49818584323 0.55665969849 0.10674898326
          0.49934151769 0.34865522385 0.38687425852 0.14121998847 0.52649348974 0.21807806194
          0.17166799307 0.21005986631 0.33518218994 0.30122679472 0.44020426273 0.09071098268
          0.21205207705 0.1862899065 0.42727643251 0.20129679143 0.27758738399 0.43946316838
          0.40417605639 0.32954418659 0.44626265764 0.31271016598 0.074997462332 0.57766354084
          0.13133065403 0.1352840364 0.57478618622 0.56458646059 0.21139207482 0.5480453372
          0.13211070001 0.45224782825 0.070453606546 0.16532932222 0.53002089262 0.39046451449
          0.36236485839 0.21420812607 0.51364505291 0.24394623935 0.35530951619 0.3830281496
          0.25497034192 0.28454101086 0.38799875975 0.47496902943 0.19538792968 0.19273224473
          0.062464810908 0.15565490723 0.47106993198 0.23784191906 0.059164311737 0.43811240792
          0.25184294581 0.27987745404 0.52869915962 0.43071639538 0.5573772788 0.46541303396
          0.069854401052 0.46587088704 0.51313704252 0.23377041519 0.17917777598 0.5394346714
          0.28470653296 0.23065517843 0.55498707294 0.38990116119 0.44591680169 0.12381561846
          0.47776511312 0.22755846381 0.27697259188 0.47995230556 0.4847111702 0.44219431281
          0.41806530952 0.069481894374 0.24828244746 0.54260718822 0.19027234614 0.32424333692
          0.24444429576 0.48944556713 0.57353246212 0.55757528543 0.071133606136 0.20052063465
          0.27926078439 0.066765107214 0.57210630178 0.23530513048 0.3443967402 0.53505694866