<VTKFile type="UnstructuredGrid" version="1.0" byte_order="LittleEndian" header_type="UInt64">
  <UnstructuredGrid>
    <Piece NumberOfPoints="791" NumberOfCells="973">
      <PointData>
        <DataArray type="Float32" Name="ux" format="ascii" RangeMin="-0.048123899847" RangeMax="0.048213891685">
          -0.0002564501192 0.00076966488268 -0.0016635865904 5.6722299632e-05 0.00036101686419 0.0017742987256
          -0.00066349486588 0.0003697584325 0.0022111507133 0.00087788573001 5.2051953389e-05 -0.0021159893367
          -0.00025934251607 -0.00077325780876 -0.0021927445196 -0.00098202377558 0.0022966247052 0.0010918747867
          0.002205939265 5.439601955e-05 -0.0020958699752 0.0037101064809 -0.003607744351 0.003748570336
          5.4988224292e-05 -0.0036454899237 5.5085769418e-05 0.011833703145 -0.0059200902469 -0.012166919187
          0.011490679346 -0.0056815524586 -0.011756366119 0.014667725191 0.014086831361 0.030294517055
          0.029068671167 -0.0053646271117 -0.027266422287 -0.01792832464 -0.0050010108389 -0.025336464867
          -0.01700573042 -0.010093935765 -0.0091573158279 -0.00015343255654 -0.00012956312275 0.013773193583
          0.012983609922 -0.03569637239 -0.033869683743 0.009809397161 0.0089926552027 0.0269138515
          0.025006214157 0.035387538373 0.033588007092 -0.030559018254 -0.029258690774 0.012038940564
          -0.0060344436206 -0.012334221974 0.015061416663 0.030904430896 -0.0055585536174 -0.028377342969
          -0.018446790054 -0.010575266555 -0.00013754924294 0.014291291125 -0.036752287298 0.010329312645
          0.028065737337 0.036474075168 -0.03114496544 0.012174164876 -0.0060863480903 -0.012356422842
          0.015475339256 0.031471822411 -0.0057759429328 -0.029794767499 -0.019008023664 -0.011200625449
          -8.4274470282e-05 0.014973887242 -0.037935718894 0.011048900895 0.029601659626 0.037765484303
          -0.031615946442 0.012260658666 -0.0060888840817 -0.012276099063 0.015861326829 0.031894881278
          -0.0059670102783 -0.031184263527 -0.019495595247 -0.011823860928 -5.0888879741e-06 0.01566467993
          -0.038984995335 0.011821541935 0.031164614484 0.038973640651 -0.03189625591 0.012307809666
          -0.0060554714873 -0.012125950307 0.016218664125 0.032229002565 -0.0061425263993 -0.032566536218
          -0.019935991615 -0.012448131107 8.8942026196e-05 0.016360104084 -0.039961367846 0.01262264885
          0.032751373947 0.040138982236 -0.032058149576 0.012338249944 -0.0060086068697 -0.01195135992
          0.016554191709 0.032512474805 -0.0063044815324 -0.033891927451 -0.020340429619 -0.013048651628
          0.0001868341933 0.017033442855 -0.040867496282 0.01340804901 0.034288987517 0.041241642088
          -0.032162006944 0.012370062061 -0.0059658088721 -0.011792231351 0.016868263483 0.032782722265
          -0.0064545553178 -0.035122476518 -0.020717518404 -0.013605138287 0.00027800377575 0.017659557983
          -0.041712794453 0.014136799611 0.035717036575 0.042269978672 -0.032264787704 0.012420358136
          -0.0059440000914 -0.011685312726 0.017163297161 0.033073782921 -0.0065946578979 -0.03622270003
          -0.021076267585 -0.014098926447 0.00035300603486 0.018216529861 -0.042505145073 0.01477213297
          0.036979984492 0.043212901801 -0.032418325543 0.012502598576 -0.005956764333 -0.011660289019
          0.017440510914 0.033412784338 -0.0067263580859 -0.037164147943 -0.021423760802 -0.014515065588
          0.00040398602141 0.018686145544 -0.043251022696 0.015284014866 0.038032721728 0.044061165303
          -0.032664522529 0.012625533156 -0.0060138520785 -0.011737910099 0.017700269818 0.033817686141
          -0.0068511310965 -0.037927366793 -0.021765159443 -0.014843600802 0.00042513737571 0.01905538328
          -0.043954912573 0.015651291236 0.038843531162 0.044807612896 -0.033032305539 0.012792229652
          -0.0061204535887 -0.011928359047 0.017941707745 0.034295517951 -0.0069703520276 -0.038503691554
          -0.022103337571 -0.015080538578 0.00041298932047 0.019317200407 -0.044619105756 0.015863226727
          0.039396509528 0.045447584242 -0.033535353839 0.012999488972 -0.0062768990174 -0.012230413966
          0.018162544817 0.034841328859 -0.0070853820071 -0.038896266371 -0.022438768297 -0.015228466131
          0.00036653087591 0.019470985979 -0.045243531466 0.015920329839 0.039692856371 0.045978996903
          -0.034170806408 0.013237640262 -0.0064786900766 -0.012631388381 0.01835895516 0.035437878221
          -0.0071976776235 -0.039120320231 -0.02276959829 -0.015296749771 0.00028713938082 0.019522549585
          -0.045825853944 0.015834413469 0.039751019329 0.046402283013 -0.034919135273 0.013490707614
          -0.0067168953829 -0.013107839972 0.018525505438 0.036056108773 -0.0073089329526 -0.039202749729
          -0.023091908544 -0.015301363543 0.00017830962315 0.019483650103 -0.046361729503 0.015627898276
          0.039605718106 0.046720128506 -0.035745102912 0.013736863621 -0.0069788340479 -0.013626977801
          0.018655048683 0.03665619716 -0.0074213184416 -0.039181090891 -0.023400191218 -0.015264410526
          4.5194839913e-05 0.019371170551 -0.046845279634 0.015332432464 0.039305955172 0.046937003732
          -0.03659972921 0.013949261047 -0.0072492309846 -0.014148776419 0.018738949671 0.037189342082
          -0.0075375866145 -0.039101798087 -0.023687969893 -0.015213258564 -0.00010602502152 0.019205646589
          -0.047269716859 0.014986806549 0.03891196847 0.047058537602 -0.037423253059 0.01409613993
          -0.0075108027086 -0.014627695084 0.01876600273 0.037598509341 -0.0076620369218 -0.03901957348
          -0.023948576301 -0.015180379152 -0.00026891689049 0.019010791555 -0.047628134489 0.014635298401
          0.038492947817 0.047090753913 -0.038147356361 0.014144278131 -0.0077476175502 -0.015017885715
          0.01872559078 0.037824589759 -0.0077988882549 -0.038991298527 -0.024176025763 -0.015199862421
          -0.00043766709859 0.018808592111 -0.047914352268 0.014322492294 0.038119122386 0.047039169818
          -0.038703013211 0.014052188955 -0.0079417861998 -0.015267856419 0.018599815667 0.037795227021
          -0.0079575125128 -0.039086356759 -0.024365970865 -0.015314685181 -0.00060803297674 0.018625281751
          -0.048123899847 0.014098149724 0.037871036679 0.046907879412 -0.039012014866 0.0071072285064
          -0.0035192694049 -0.0070980950259 0.0090857697651 0.018779739738 -0.0033040917479 -0.016964117065
          -0.011060766876 -0.0062223426066 -2.2058760806e-05 0.008666427806 -0.02224845998 0.0061314725317
          0.016856715083 0.022082727402 -0.018787266687 -0.0005365452962 -0.0031181592494 -0.0013482321519
          1.2893870007e-05 0.0014604819007 0.0012934233528 0.0032096372452 -0.011408348568 0.0057652490214
          0.01183993835 -0.01176280342 0.005991616752 0.01223859936 -0.014003797434 -0.014596951194
          -0.028987884521 -0.030223915353 0.0050846049562 0.025420265272 0.017089448869 0.0054361526854
          0.02733870782 0.018000366166 0.009240783751 0.01016557496 0.00021363476117 0.00022465937946
          -0.012900035828 -0.013702482916 0.033952660859 0.035769373178 -0.0089097013697 -0.009738416411
          -0.024924464524 -0.026843260974 -0.033507887274 -0.035316959023 0.029341405258 0.030631940812
          -0.011982545257 0.0060916137882 0.01239155978 -0.015004958957 -0.030848648399 0.0056157140061
          0.028435355052 0.018504459411 0.010632523336 0.00019456895825 -0.01423473563 0.036810617894
          -0.01027274318 -0.028009684756 -0.036418356001 0.031202988699 -0.012134500779 0.0061267283745
          0.012396971695 -0.015435708687 -0.031432755291 0.0058163357899 0.0298360046 0.01904889755
          0.011241170578 0.00012446360779 -0.014934215695 0.037977308035 -0.011009109206 -0.029562452808
          -0.03772655502 0.031657293439 -0.012239269912 0.0061109624803 0.012298382819 -0.015840021893
          -0.031874168664 0.0059891017154 0.031207242981 0.01951816678 0.011846148409 2.6967400117e-05
          -0.015643337741 0.039008267224 -0.011800061911 -0.031143797562 -0.038953125477 0.031919263303
          -0.012305141427 0.0060587911867 0.012129500508 -0.016216142103 -0.032227069139 0.0061458679847
          0.032570786774 0.019939793274 0.012451723218 -8.5837767983e-05 -0.016357565299 0.03996585682
          -0.0126199238 -0.032749395818 -0.040137317032 0.032062385231 -0.01235356275 0.0059939073399
          0.011936922558 -0.016569714993 -0.032528586686 0.0062898104079 0.03387818858 0.020326204598
          0.013034282252 -0.00020176380349 -0.017048960552 0.040853943676 -0.013423338532 -0.034305110574
          -0.041258089244 0.032148201019 -0.012401402928 0.0059350454248 0.011761758476 -0.016899874434
          -0.032814927399 0.0064238267951 0.035092700273 0.020687220618 0.013574759476 -0.00030901120044
          -0.017691178247 0.041683159769 -0.01416814886 -0.035749297589 -0.042302578688 0.03223490715
          -0.012464650907 0.0059002568014 0.011641885154 -0.017207909375 -0.033118989319 0.0065509541892
          0.036179967225 0.021032983437 0.014055613428 -0.00039700526395 -0.018261162564 0.042462512851
          -0.014816461131 -0.037025291473 -0.043258562684 0.032375451177 -0.012555819005 0.0059040747583
          0.011607933789 -0.017494088039 -0.033466961235 0.0066737108864 0.037112493068 0.021371528506
          0.014462838881 -0.00045694180881 -0.018739752471 0.043199434876 -0.015337291174 -0.03808702901
          -0.044115833938 0.032612700015 -0.012682967819 0.0059569422156 0.011681348085 -0.017758084461
          -0.033876106143 0.0067942645401 0.03787150979 0.021708708256 0.014787172899 -0.00048232128029
          -0.019113233313 0.04389911145 -0.01570879668 -0.038902103901 -0.044866550714 0.032976265997
          -0.012848776765 0.0060644377954 0.011872695759 -0.017998641357 -0.034353066236 0.0069143786095
          0.038448743522 0.022047787905 0.015025010332 -0.00046928366646 -0.019374171272 0.044564213604
          -0.015919851139 -0.039454214275 -0.045505657792 0.033480219543 -0.013049986213 0.0062269526534
          0.012180818245 -0.018213419244 -0.034892827272 0.0070354752243 0.038847398013 0.022389298305
          0.01517899707 -0.00041675806278 -0.019521897659 0.045194737613 -0.015970902517 -0.039744503796
          -0.046031013131 0.034121762961 -0.013277187943 0.0064397230744 0.012592762709 -0.018398856744
          -0.035478413105 0.0071587455459 0.039082441479 0.022731121629 0.015258236788 -0.00032638624543
          -0.019562484697 0.045788075775 -0.015874028206 -0.039791688323 -0.046443317086 0.034881100059
          -0.013514959253 0.0066932626069 0.013084535487 -0.018550077453 -0.036081325263 0.0072853290476
          0.039180211723 0.023068785667 0.015278151259 -0.00020221964223 -0.019508250058 0.046339333057
          -0.015652205795 -0.039631046355 -0.046745814383 0.035722438246 -0.013742251322 0.0069741085172
          0.013622563332 -0.018660716712 -0.036662518978 0.007416614797 0.039177466184 0.023395994678
          0.015260065906 -5.0193903007e-05 -0.019376859069 0.046841841191 -0.015337861143 -0.039312358946
          -0.046943757683 0.036596007645 -0.013933132403 0.0072660655715 0.014165904373 -0.018723059446
          -0.037174120545 0.0075544365682 0.03911973536 0.02370535396 0.015230434015 0.00012259045616
          -0.019189769402 0.04728789255 -0.01497070305 -0.038896795362 -0.047043710947 0.037441127002
          -0.014056785032 0.0075509012677 0.014668071643 -0.018726848066 -0.037560030818 0.0077021438628
          0.039060778916 0.023989239708 0.015220780857 0.00030875048833 -0.018971642479 0.047669615597
          -0.01459595561 -0.038454491645 -0.047052633017 0.03818852827 -0.014080831781 0.0078118336387
          0.015082366765 -0.018662316725 -0.037761997432 0.0078631080687 0.039056617767 0.024240819737
          0.015264352784 0.00050162122352 -0.01874532178 0.047979980707 -0.014259048738 -0.038056541234
          -0.046976912767 0.038768321276 -0.013964397833 0.0080303568393 0.015356687829 -0.018512189388
          -0.037708282471 0.0080460840836 0.039176031947 0.02445512265 0.015403519385 0.00069634238025
          -0.018537655473 0.048213891685 -0.014010359533 -0.037784095854 -0.046821258962 0.039101686329
          -0.0070138676092 0.0036095073447 0.0071911802515 -0.0089969513938 -0.018685379997 0.003391869599
          0.017056148499 0.011151048355 0.0063095204532 0.00010834621207 -0.008579865098 0.022344725206
          -0.0060446779244 -0.016764802858 -0.02198632434 0.018884295598 0.00064490584191 0.0032172927167
          0.0014511146583 0.00010152435425 -0.0013491743011 -0.0011902871775 -0.0031106304377 -0.001720484579
          4.1678515117e-05 0.001805695123 0.0010269316845 4.3837604608e-05 -0.00094062159769 4.4222575525e-05
          -0.00096868531546 4.5111519285e-05 -0.0016762071755 0.0017701248871 4.7753543186e-05 0.0010604956187
          -4.8664991482e-05 3.0844716093e-05 0.00011084437574 7.7625394624e-05 3.192810982e-05 -1.3072701222e-05
          3.2866148103e-05 8.5461834942e-07 3.3682266803e-05 -4.8413632612e-05 0.00011716004519 3.4700115066e-05
          6.5599750087e-05 0.00099143886473 1.8965827621e-05 -0.0009528567316 -0.00050211086636 1.9886998416e-05
          0.00054213852854 2.0387920813e-05 0.00054111127974 2.090968519e-05 0.00099396577571 -0.00095089082606
          2.1794397981e-05 -0.00049919675803 0.001924194512 8.9043542175e-06 -0.0019059919287 -0.0010333211394
          9.4854212875e-06 0.0010527542327 9.8542204796e-06 0.0010551700834 1.019004867e-05 0.0019267633324
          -0.0019056529272 1.0684024346e-05 -0.001034670393 0.003672977211 2.1686705622e-06 -0.0036683348008
          -0.0019831990357 2.4891235171e-06 0.0019888342358 2.6638665531e-06 0.001990358578 2.8133856631e-06
          0.0036743867677 -0.0036683785729 3.012162324e-06 -0.0019841883332 0 0
          0 0 0 0 0 0
          0 0 0 0 0
        </DataArray>
        <DataArray type="Float32" Name="uy" format="ascii" RangeMin="-0.75496554375" RangeMax="1.1283780336">
          0.86001241207 0.87925368547 0.88508552313 0.85230493546 0.86001390219 0.88505983353
          0.87928271294 0.85967952013 0.87438005209 0.86136198044 0.85195291042 0.8744071722
          0.85969495773 0.86136561632 0.87392699718 0.86128342152 0.87390631437 0.86127310991
          0.89257103205 0.87478542328 0.89258813858 0.89148515463 0.89154088497 0.89167279005
          0.8744122982 0.89175462723 0.84880179167 0.80856537819 0.79104733467 0.80860501528
          0.91698610783 0.89924788475 0.91708475351 0.78410315514 0.8923920393 0.79379570484
          0.90230405331 0.75749409199 0.75241351128 0.77341276407 0.86670780182 0.86137610674
          0.88187193871 0.74158996344 0.85148257017 0.77394092083 0.88244020939 0.76337391138
          0.87220960855 0.77188181877 0.88029938936 0.74153780937 0.85143440962 0.75242507458
          0.86132335663 0.77191859484 0.88034152985 0.79380387068 0.90227222443 0.65775310993
          0.63960832357 0.65779954195 0.63249844313 0.64280664921 0.6047347188 0.59968447685
          0.62144446373 0.58801883459 0.62188303471 0.61094737053 0.62021416426 0.58798098564
          0.59968227148 0.6202429533 0.64281064272 0.47143006325 0.45298588276 0.47145754099
          0.4458155334 0.45660915971 0.41699174047 0.41212615371 0.43450963497 0.39948132634
          0.43479818106 0.42357003689 0.43368816376 0.3994551599 0.41212853789 0.43370819092
          0.45661246777 0.26164975762 0.2429357022 0.26166129112 0.23574030399 0.24707128108
          0.20586498082 0.20124725997 0.22421361506 0.1875154376 0.22432646155 0.21283006668
          0.22389391065 0.18750569224 0.20124806464 0.22390189767 0.24707245827 0.042617172003
          0.023699687794 0.042609695345 0.016508135945 0.028367396444 -0.014390826225 -0.018715163693
          0.0047885780223 -0.033570334315 0.0047076181509 -0.007033072412 0.0050158752128 -0.033562533557
          -0.018713932484 0.0050111133605 0.028366882354 -0.17009611428 -0.18918699026 -0.17012223601
          -0.19636207819 -0.18399141729 -0.2282320261 -0.23225578666 -0.20825390518 -0.2482123971
          -0.20852868259 -0.22049339116 -0.20747816563 -0.24818690121 -0.23225453496 -0.2074957788
          -0.18399372697 -0.36089745164 -0.38015255332 -0.36094084382 -0.3873142302 -0.37446922064
          -0.42008852959 -0.42383569479 -0.39936819673 -0.44081237912 -0.39982199669 -0.41199654341
          -0.39808633924 -0.44077059627 -0.42383435369 -0.39811581373 -0.37447312474 -0.51540064812
          -0.53483229876 -0.51545852423 -0.54199749231 -0.52873033285 -0.57559335232 -0.57911753654
          -0.55421131849 -0.59698009491 -0.55481541157 -0.56718993187 -0.5525046587 -0.59692460299
          -0.57911604643 -0.55254405737 -0.52873557806 -0.62153571844 -0.6411730051 -0.62160420418
          -0.64836978912 -0.63474565744 -0.68269205093 -0.6860704422 -0.66074806452 -0.70464158058
          -0.66146254539 -0.6740309 -0.65872943401 -0.70457607508 -0.68606889248 -0.65877616405
          -0.63475191593 -0.67044705153 -0.69033050537 -0.67052155733 -0.69759458303 -0.68368762732
          -0.73253917694 -0.73586517572 -0.71014624834 -0.75493812561 -0.71092355251 -0.72368198633
          -0.70795023441 -0.75486689806 -0.735863626 -0.70800119638 -0.68369442225 -0.65711140633
          -0.67728662491 -0.65718698502 -0.68465715647 -0.67054569721 -0.7201154232 -0.72348982096
          -0.69739300013 -0.74284380674 -0.69818198681 -0.71112781763 -0.69516432285 -0.74277162552
          -0.72348839045 -0.69521605968 -0.67055261135 -0.58062434196 -0.60113489628 -0.58069622517
          -0.60864979029 -0.59441161156 -0.64451336861 -0.64803493023 -0.62157982588 -0.66745239496
          -0.62233042717 -0.63546019793 -0.61946046352 -0.66738379002 -0.64803355932 -0.61950963736
          -0.59441822767 -0.44412615895 -0.46500635147 -0.44418993592 -0.47269782424 -0.45840469003
          -0.50886303186 -0.51261866093 -0.48582816124 -0.53190267086 -0.48649570346 -0.4998036325
          -0.48394447565 -0.53184181452 -0.51261740923 -0.48398819566 -0.45841059089 -0.25436106324
          -0.27562946081 -0.25441342592 -0.28351929784 -0.26923236251 -0.31989219785 -0.32394751906
          -0.29684966803 -0.34293836355 -0.29739940166 -0.31087592244 -0.29530018568 -0.34288838506
          -0.32394650578 -0.29533612728 -0.26923727989 -0.020889379084 -0.04254258424 -0.020928272977
          -0.05063842237 -0.036403764039 -0.087138473988 -0.091529920697 -0.064159527421 -0.11011963338
          -0.0645705387 -0.078200750053 -0.063004024327 -0.11008253694 -0.091529101133 -0.063030801713
          -0.036407493055 0.24500986934 0.22300218046 0.24498486519 0.21471004188 0.22886481881
          0.17814658582 0.17341850698 0.20101818442 0.15527392924 0.20075030625 0.18698738515
          0.20176760852 0.1552977711 0.17341908813 0.20175030828 0.22886233032 0.53169047832
          0.50938898325 0.53167808056 0.50093084574 0.51499992609 0.46434760094 0.45932450891
          0.48710107803 0.44159534574 0.48695996404 0.47309353948 0.48748728633 0.44160714746
          0.45932501554 0.48747840524 0.51499837637 0.82867699862 0.80617541075 0.82867348194
          0.79760074615 0.81159979105 0.76102232933 0.75578725338 0.78367781639 0.73836743832
          0.78363031149 0.76969456673 0.78380054235 0.73837071657 0.75578737259 0.78379803896
          0.81159937382 1.1283388138 1.1057653427 1.1283388138 1.0971497297 1.1111222506
          1.0605750084 1.0552630424 1.083194375 1.0379582644 1.0831793547 1.0692205429
          1.0832207203 1.0379582644 1.0552639961 1.0832192898 1.1111212969 0.95537370443
          0.93840551376 0.95554172993 0.93219411373 0.9417834878 0.91043037176 0.90589153767
          0.92316436768 0.8975379467 0.92363399267 0.91504222155 0.9221637845 0.89755648375
          0.90582585335 0.92212498188 0.94157785177 0.90279173851 0.90532106161 0.91200834513
          0.89271908998 0.89906901121 0.91208666563 0.90543174744 0.91699939966 0.89925831556
          0.9170974493 0.80857855082 0.7910605669 0.80861854553 0.89240533113 0.78411537409
          0.90231692791 0.79380840063 0.86671864986 0.86138671637 0.88188242912 0.75750571489
          0.75242477655 0.77342504263 0.85149258375 0.7416011095 0.88245135546 0.77395319939
          0.87222087383 0.76338583231 0.88030791283 0.77189445496 0.85144430399 0.74154913425
          0.8613333106 0.75243681669 0.88035672903 0.77192986012 0.90228319168 0.79381710291
          0.65776491165 0.63961946964 0.65781146288 0.63250935078 0.64281773567 0.60474467278
          0.59969419241 0.62145501375 0.58802819252 0.62189358473 0.61095750332 0.62022459507
          0.58799034357 0.59969198704 0.62025350332 0.64282202721 0.47143805027 0.45299330354
          0.47146564722 0.44582265615 0.45661661029 0.41699787974 0.41213205457 0.4345163703
          0.39948680997 0.43480494618 0.42357641459 0.43369489908 0.39946073294 0.41213455796
          0.43371483684 0.45662006736 0.26165255904 0.24293784797 0.26166415215 0.23574218154
          0.24707351625 0.20586581528 0.20124794543 0.22421510518 0.18751564622 0.22432795167
          0.21283113956 0.22389538586 0.18750590086 0.20124872029 0.22390332818 0.24707478285
          0.042613931 0.023695763201 0.042606435716 0.016503950581 0.028363637626 -0.014396087267
          -0.018720546737 0.0047839893959 -0.033576246351 0.0047030197456 -0.0070381048135 0.0050112949684
          -0.033568497747 -0.018719414249 0.0050064804964 0.028363103047 -0.17010556161 -0.18919716775
          -0.17013175786 -0.1963724941 -0.18400134146 -0.2282435447 -0.23226739466 -0.20826473832
          -0.24822458625 -0.20853953063 -0.22050470114 -0.20748896897 -0.24819920957 -0.23226633668
          -0.20750664175 -0.18400377035 -0.36091265082 -0.38016849756 -0.36095616221 -0.38733041286
          -0.37448483706 -0.42010587454 -0.42385306954 -0.39938479662 -0.44083037972 -0.39983862638
          -0.41201364994 -0.39810290933 -0.44078874588 -0.42385196686 -0.39813241363 -0.37448897958
          -0.51542055607 -0.53485304117 -0.51547861099 -0.54201841354 -0.52875065804 -0.57561546564
          -0.57913959026 -0.55423271656 -0.59700286388 -0.55483680964 -0.56721180677 -0.55252593756
          -0.59694755077 -0.57913851738 -0.55256539583 -0.52875620127 -0.62155884504 -0.64119696617
          -0.62162750959 -0.648393929 -0.63476914167 -0.68271738291 -0.68609571457 -0.66077262163
          -0.70466762781 -0.66148716211 -0.67405599356 -0.65875393152 -0.70460230112 -0.68609458208
          -0.65880072117 -0.63477575779 -0.67047148943 -0.69035583735 -0.67054623365 -0.69762009382
          -0.68371248245 -0.73256593943 -0.735891819 -0.71017217636 -0.75496554375 -0.71094954014
          -0.7237085104 -0.70797616243 -0.75489455462 -0.73589074612 -0.7080271244 -0.68371969461
          -0.65713512897 -0.67731118202 -0.65721094608 -0.6846818924 -0.67056983709 -0.72014147043
          -0.72351580858 -0.6974182725 -0.74287056923 -0.69820731878 -0.71115368605 -0.69518953562
          -0.74279862642 -0.7235147953 -0.69524127245 -0.67057716846 -0.5806452632 -0.60115665197
          -0.58071732521 -0.6086717844 -0.59443289042 -0.64453655481 -0.64805811644 -0.62160229683
          -0.66747635603 -0.62235289812 -0.63548314571 -0.61948281527 -0.6674079895 -0.64805716276
          -0.6195320487 -0.59443992376 -0.444142133 -0.46502321959 -0.44420614839 -0.47271490097
          -0.45842111111 -0.50888139009 -0.51263701916 -0.48584574461 -0.53192174435 -0.48651331663
          -0.49982178211 -0.48396196961 -0.53186112642 -0.51263612509 -0.48400571942 -0.45842736959
          -0.25437036157 -0.2756395936 -0.25442290306 -0.28352969885 -0.26924213767 -0.31990388036
          -0.32395923138 -0.29686054587 -0.34295079112 -0.29741030931 -0.31088733673 -0.29531100392
          -0.34290099144 -0.32395851612 -0.29534697533 -0.26924732327 -0.020890478045 -0.042544528842
          -0.020929500461 -0.050640612841 -0.036405373365 -0.087141960859 -0.091533474624 -0.064162217081
          -0.11012388766 -0.064573250711 -0.078203976154 -0.063006676733 -0.11008693278 -0.091532878578
          -0.063033469021 -0.036409303546 0.24501809478 0.22300957143 0.24499300122 0.21471716464
          0.22887249291 0.17815239727 0.17342421412 0.20102480054 0.15527898073 0.20075690746
          0.18699349463 0.20177425444 0.15530271828 0.17342464626 0.20175695419 0.22886988521
          0.53170871735 0.50940644741 0.53169625998 0.50094801188 0.51501756907 0.46436345577
          0.45934021473 0.48711773753 0.44161042571 0.48697662354 0.47310969234 0.48750397563
          0.44162216783 0.45934066176 0.48749506474 0.51501601934 0.82870566845 0.80620324612
          0.82870215178 0.79762834311 0.81162786484 0.76104861498 0.75581330061 0.7837048769
          0.7383928895 0.783657372 0.7697211504 0.78382760286 0.73839616776 0.75581341982
          0.78382509947 0.811627388 1.1283780336 1.1058037281 1.1283780336 1.0971877575
          1.1111608744 1.0606118441 1.0552996397 1.083231926 1.0379942656 1.0832169056
          1.069257617 1.0832582712 1.0379941463 1.0553005934 1.0832568407 1.1111599207
          0.95537656546 0.93841654062 0.95554751158 0.93219274282 0.94178318977 0.91043633223
          0.90589845181 0.92317378521 0.8975455761 0.92364042997 0.91504627466 0.92218178511
          0.89756512642 0.90583413839 0.92211258411 0.94158768654 0.90279972553 0.90531975031
          0.91201657057 0.89271593094 0.89908319712 0.91208970547 0.90543460846 0.7124465704
          0.71239846945 0.71244335175 0.71353888512 0.71281951666 0.7135412097 0.7129342556
          0.71347558498 0.71276170015 0.71252071857 0.71252739429 0.7125544548 0.71348136663
          0.52272444963 0.52245664597 0.52272236347 0.52300280333 0.52294069529 0.52300709486
          0.52301037312 0.52301311493 0.52295094728 0.52270042896 0.52270191908 0.52241671085
          0.52301675081 0.32669743896 0.32724544406 0.32669556141 0.32558691502 0.32615602016
          0.32558956742 0.32597669959 0.3255867362 0.32615557313 0.32670328021 0.32670500875
          0.32725736499 0.32558938861 0.15868794918 0.15958210826 0.15868669748 0.15651488304
          0.15769171715 0.15651673079 0.15730294585 0.15651521087 0.15769225359 0.15868645906
          0.15868721902 0.15958099067 0.15651676059 0.045953612775 0.047877375036 0.045952670276
          0.041808187962 0.043819095939 0.041809253395 0.043076839298 0.041808973998 0.04381961748
          0.045954488218 0.045954558998 0.04787921533 0.04180951789 0 0
          0 0 0 0 0 0
          0 0 0 0 0
        </DataArray>
        <DataArray type="Float32" Name="uz" format="ascii" RangeMin="-0.16833047569" RangeMax="0.16865329444">
          0.01190551836 -0.0057727936655 0.013880606741 0.015589434654 0.011907632463 0.013891455717
          -0.0058024888858 -0.011878464371 -0.029408041388 -0.031094744802 -0.015769414604 -0.029376104474
          -0.011894998141 -0.031084921211 0.029644941911 0.031049313024 0.029663851485 0.031044129282
          -0.015211740509 -0.035836555064 -0.01518232841 -0.030296325684 -0.030253177509 0.030012289062
          0.035681959242 0.029969803989 0.00017042295076 -0.022462511435 0.011430280283 0.022811792791
          -0.014962763526 0.0077791125514 0.015295801684 -0.029338885099 -0.019674057141 -0.059116903692
          -0.039154227823 0.01145725511 0.059475217015 0.036640964448 0.0074180536903 0.038071323186
          0.024420723319 0.022873206064 0.014287306927 0.00016142720415 0.00015602013445 -0.029392760247
          -0.019134262577 0.073413327336 0.048215184361 -0.022535953671 -0.014057673514 -0.059201166034
          -0.037753660232 -0.073047429323 -0.047963105142 0.059392750263 0.039621338248 -0.02924628742
          0.014809172601 0.029548689723 -0.038214117289 -0.076846554875 0.014827583916 0.077163368464
          0.047594457865 0.029603246599 0.00016201777908 -0.038203898817 0.09537191689 -0.029226092622
          -0.076860845089 -0.094991184771 0.077106945217 -0.03433810547 0.017318075523 0.03462029621
          -0.044802285731 -0.090153776109 0.017353193834 0.090407073498 0.055732183158 0.034683290869
          0.00016425247304 -0.044780787081 0.1117657572 -0.034261297435 -0.090095825493 -0.11136162281
          0.090375892818 -0.037156682462 0.018712637946 0.037422645837 -0.048463791609 -0.097523204982
          0.018757838756 0.097787201405 0.060257442296 0.03751629591 0.00016583321849 -0.048434715718
          0.12088271976 -0.037065394223 -0.097468942404 -0.12046445161 0.097728282213 -0.037396010011
          0.018826024607 0.037656690925 -0.048763666302 -0.098146319389 0.018877105787 0.098407886922
          0.060630548745 0.037758938968 0.00016747343761 -0.04873270914 0.12165079266 -0.037293870002
          -0.098082832992 -0.12122537196 0.098344713449 -0.034936033189 0.017601868138 0.03520007059
          -0.045551918447 -0.091706708074 0.017651837319 0.091974109411 0.056663863361 0.035300847143
          0.00016895977024 -0.045520834625 0.11369499564 -0.034835252911 -0.091644391418 -0.11327001452
          0.091911934316 -0.029878584668 0.01508943364 0.030154451728 -0.038959536701 -0.078472442925
          0.015133469366 0.07875097543 0.048520766199 0.030243074521 0.00017035266501 -0.03893237561
          0.097344353795 -0.029790079221 -0.078417696059 -0.096926830709 0.078696236014 -0.022528911009
          0.011440010741 0.022823806852 -0.029383322224 -0.059241212904 0.011473358609 0.059535291046
          0.036690823734 0.022890975699 0.0001716340339 -0.029362702742 0.073584288359 -0.022461805493
          -0.059199701995 -0.073180258274 0.059493817389 -0.013365663588 0.0068907821551 0.013685309328
          -0.017445920035 -0.035265583545 0.0069098426029 0.03557857126 0.021943472326 0.013723744079
          0.00017280728207 -0.017434144393 0.043962378055 -0.013327276334 -0.035241831094 -0.043576475233