<VTKFile type="UnstructuredGrid" version="1.0" byte_order="LittleEndian" header_type="UInt64">
  <UnstructuredGrid>
    <Piece NumberOfPoints="791" NumberOfCells="973">
      <PointData>
        <DataArray type="Float32" Name="ux" format="ascii" RangeMin="-0.21083043516" RangeMax="0.20990416408">
          0.051056358963 -0.029913466424 0.077756248415 0.063008084893 0.051053013653 0.077789455652
          -0.02988935262 -0.051768712699 -0.17166778445 -0.13556222618 -0.063574001193 -0.17166228592
          -0.051763147116 -0.13558462262 0.17105390131 0.13491506875 0.17103123665 0.13483189046
          -0.097519949079 -0.17095521092 -0.09750828892 -0.19487866759 -0.19485835731 0.1942243576
          0.17025481164 0.19425673783 -0.0004100901424 0.061394240707 -0.030752886087 -0.061485350132
          0.060621012002 -0.030566783622 -0.060901984572 0.080333575606 0.079590454698 0.16072081029
          0.15929122269 -0.030729195103 -0.16069418192 -0.099369980395 -0.030668821186 -0.16008375585
          -0.098804891109 -0.061394590884 -0.061307903379 -4.4737567805e-05 -0.0001372974948 0.080298610032
          0.079743035138 -0.19868083298 -0.19754453003 0.061309129 0.061005014926 0.16060490906
          0.15981478989 0.19859589636 0.1972591579 -0.16080951691 -0.15957145393 0.061986077577
          -0.030894642696 -0.061910543591 0.080983959138 0.16206486523 -0.030800355598 -0.16141588986
          -0.099917270243 -0.061559367925 4.0533916035e-05 0.080830357969 -0.19987866282 0.061642996967
          0.16148911417 0.19995994866 -0.16197539866 0.062550358474 -0.031044336036 -0.062340434641
          0.081587746739 0.1632938534 -0.030878547579 -0.16209357977 -0.10043685883 -0.061725258827
          0.00010953992751 0.081319600344 -0.20098178089 0.061951141804 0.16229997575 0.20120218396
          -0.16306175292 0.063046760857 -0.03118943423 -0.062731519341 0.082135744393 0.16441404819
          -0.030968319625 -0.16277682781 -0.10093843192 -0.061911579221 0.00016349215002 0.081777848303
          -0.20204046369 0.062247872353 0.16308680177 0.20236855745 -0.16406951845 0.063484154642
          -0.031333360821 -0.063094131649 0.08263001591 0.16542243958 -0.031069500372 -0.16345620155
          -0.10142070055 -0.062116000801 0.00020191415388 0.082203000784 -0.20304295421 0.062531173229
          0.16383971274 0.20344793797 -0.16499783099 0.063859552145 -0.031475070864 -0.063425175846
          0.083069197834 0.16631811857 -0.031182028353 -0.16413377225 -0.1018832624 -0.062339175493
          0.00022477757011 0.082594968379 -0.20399107039 0.062801495194 0.16456077993 0.20444175601
          -0.16584554315 0.064173981547 -0.03161463514 -0.063725292683 0.083453804255 0.16710162163
          -0.031305667013 -0.16480830312 -0.10232594609 -0.06258046627 0.00023229395447 0.082953818142
          -0.20488393307 0.06305860728 0.16524912417 0.20534960926 -0.16661280394 0.06442862004
          -0.031751736999 -0.06399474293 0.083784535527 0.16777469218 -0.031439591199 -0.16547758877
          -0.10274805129 -0.062838323414 0.00022493356664 0.083279423416 -0.20572081208 0.063301950693
          0.16590344906 0.20617170632 -0.16730038822 0.064625792205 -0.031886033714 -0.064234368503
          0.08406278491 0.16834057868 -0.031582564116 -0.16613799334 -0.10314869881 -0.063110232353
          0.00020345646772 0.083571709692 -0.20650063455 0.063530579209 0.16652157903 0.20690850914
          -0.16790992022 0.064768746495 -0.032017089427 -0.06444542855 0.084290497005 0.16880390048
          -0.031732864678 -0.16678456962 -0.10352671891 -0.063392721117 0.0001688929915 0.083830565214
          -0.20722213387 0.063743121922 0.16710050404 0.20756079257 -0.16844390333 0.064861655235
          -0.032144423574 -0.064629614353 0.084470197558 0.16917070746 -0.03188836202 -0.16741101444
          -0.10388071835 -0.063681393862 0.00012252158194 0.08405584842 -0.20788379014 0.063937813044
          0.1676363945 0.20812959969 -0.16890567541 0.064909532666 -0.032267507166 -0.064789071679
          0.084604896605 0.16944828629 -0.032046534121 -0.1680098623 -0.10420910269 -0.06397099793
          6.5825457568e-05 0.084247328341 -0.2084838897 0.064112477005 0.16812455654 0.20861618221
          -0.16929940879 0.064918115735 -0.032385844737 -0.06492639333 0.084698006511 0.16964499652
          -0.032204575837 -0.16857258976 -0.10451015085 -0.064255587757 4.3652698878e-07 0.084404699504
          -0.20902062953 0.064264521003 0.16855958104 0.20902201533 -0.16963002086 0.064893700182
          -0.032498978078 -0.06504458189 0.084753274918 0.16977016628 -0.032359462231 -0.16908983886
          -0.10478206724 -0.064528629184 -7.1933747677e-05 0.084527522326 -0.20949211717 0.064390949905
          0.16893531382 0.20934863389 -0.16990321875 0.064843006432 -0.032606583089 -0.065147072077
          0.08477461338 0.16983377934 -0.032508052886 -0.16955162585 -0.10502306372 -0.064783193171
          -0.00014957395615 0.084615185857 -0.20989650488 0.064488396049 0.16924500465 0.20959761739
          -0.17012532055 0.064772941172 -0.032708484679 -0.065237678587 0.084765978158 0.169846192
          -0.032647248358 -0.16994760931 -0.10523147136 -0.065012156963 -0.00023086092551 0.084666900337
          -0.21023204923 0.064553111792 0.16948129237 0.20977048576 -0.17030324042 0.064690575004
          -0.032804846764 -0.06532073766 0.084731385112 0.16981819272 -0.032773979008 -0.17026712
          -0.10540579259 -0.065208248794 -0.00031435425626 0.084681451321 -0.21049721539 0.064580835402
          0.16963618994 0.209868595 -0.17044463754 0.064602434635 -0.032895859331 -0.065400615335
          0.084674164653 0.16975982487 -0.032885719091 -0.17050023377 -0.10554485023 -0.065364763141
          -0.00039889532491 0.084657773376 -0.21069079638 0.064567327499 0.16970184445 0.20989303291
          -0.17055699229 0.064515680075 -0.03298272565 -0.065483190119 0.084598280489 0.16968260705
          -0.032979708165 -0.17063575983 -0.10564783961 -0.065474256873 -0.00048371014418 0.084593422711
          -0.21081195772 0.064506933093 0.16966821253 0.20984454453 -0.17064990103 0.060547359288
          -0.030613822863 -0.0611702241 0.079003080726 0.15827314556 -0.03053759411 -0.15898559988
          -0.098191104829 -0.060969974846 -0.00027668086113 0.078992262483 -0.19618147612 0.060480929911
          0.1585392803 0.19565945864 -0.15884830058 -0.030486648902 -0.15843202174 -0.060759913176
          -0.00028546640533 0.078667216003 0.060251120478 0.15785780549 0.06061847508 -0.030577080324
          -0.060913488269 0.06139203161 -0.030761085451 -0.061495862901 0.079586863518 0.080333255231
          0.15929581225 0.16072535515 -0.030678931624 -0.16010287404 -0.098819598556 -0.03073752299
          -0.16071149707 -0.099383041263 -0.06132010743 -0.061405066401 -0.000145421669 -5.0891649153e-05
          0.079740256071 0.080298058689 -0.19756643474 -0.19870065153 0.061001121998 0.0613072142
          0.15981791914 0.16060985625 0.19726610184 0.19860313833 -0.15958972275 -0.16082690656
          0.061985813081 -0.030901340768 -0.061919316649 0.080984912813 0.16207154095 -0.030807031319
          -0.16143164039 -0.099928706884 -0.061568211764 3.5994406062e-05 0.080831408501 -0.19989702106
          0.061642747372 0.16149580479 0.19996932149 -0.16199102998 0.062551379204 -0.031049687415
          -0.062347926199 0.081590153277 0.16330179572 -0.030883928761 -0.1621080935 -0.10044702142
          -0.061732817441 0.00010631961777 0.081322021782 -0.20099888742 0.061952240765 0.16230805218
          0.20121285319 -0.16307616234 0.063048876822 -0.031193748116 -0.062737971544 0.082139216363
          0.1644231379 -0.030972650275 -0.16279035807 -0.10094757378 -0.061918102205 0.00016133226745
          0.081781357527 -0.20205660164 0.062250055373 0.16309601068 0.20238038898 -0.16408291459
          0.063487105072 -0.031336866319 -0.063099779189 0.082634344697 0.16543239355 -0.031073024496
          -0.16346895695 -0.1014290601 -0.062121730298 0.00020057278743 0.082207359374 -0.2030583322
          0.062534198165 0.16384980083 0.20346064866 -0.16501048207 0.063863128424 -0.031477984041
          -0.06343024224 0.08307415247 0.1663287431 -0.031184960157 -0.16414597631 -0.1018910557
          -0.062344323844 0.00022403916228 0.082599952817 -0.20400591195 0.062805145979 0.16457152367
          0.20445513725 -0.16585764289 0.064177982509 -0.031617149711 -0.063729971647 0.083459191024
          0.16711269319 -0.03130820021 -0.16482016444 -0.10233335942 -0.062585227191 0.00023196190887
          0.082959234715 -0.2048984319 0.063062690198 0.16526031494 0.20536346734 -0.16662454605
          0.064432874322 -0.031754028052 -0.063999213278 0.083790175617 0.16778604686 -0.031441904604
          -0.16548925638 -0.1027552709 -0.062842868268 0.00022483155772 0.083285093307 -0.2057351321
          0.06330627948 0.16591492295 0.20618584752 -0.16731193662 0.064630135894 -0.031888261437
          -0.064238786697 0.084068514407 0.16835203767 -0.031584810466 -0.16614964604 -0.10315586627
          -0.063114717603 0.00020342724747 0.083577476442 -0.20651493967 0.063534989953 0.16653315723
          0.20692276955 -0.16792145371 0.06477304548 -0.032019391656 -0.06444992125 0.084296189249
          0.16881534457 -0.031735185534 -0.16679631174 -0.10353397578 -0.063397288322 0.00016879847681
          0.08383628726 -0.2072365582 0.063747480512 0.16711206734 0.20757503808 -0.16845554113
          0.064865782857 -0.032146915793 -0.064634308219 0.084475718439 0.16918201745 -0.031890869141
          -0.16742296517 -0.10388818383 -0.063686147332 0.0001222427818 0.084061391652 -0.20789843798
          0.06394200027 0.16764779389 0.20814369619 -0.16891753674 0.064913399518 -0.032270293683
          -0.064794071019 0.084610149264 0.16945934296 -0.032049331814 -0.16802212596 -0.10421687365
          -0.063976041973 6.5262334829e-05 0.084252603352 -0.20849886537 0.064116388559 0.16813568771
          0.20863004029 -0.16931158304 0.064921632409 -0.032389000058 -0.064931765199 0.084702916443
          0.16965572536 -0.032207742333 -0.16858524084 -0.10451830178 -0.064261004329 -4.9235228516e-07
          0.084409616888 -0.20903599262 0.064268067479 0.16857036948 0.20903553069 -0.16964261234
          0.064896799624 -0.032502569258 -0.065050400794 0.084757767618 0.16978049278 -0.032363060862
          -0.16910293698 -0.10479065776 -0.06453447789 -7.3291907029e-05 0.084532022476 -0.2095079422
          0.064394079149 0.16894569993 0.20936174691 -0.16991625726 0.064845636487 -0.032610654831
          -0.065153375268 0.084778636694 0.1698436439 -0.032512132078 -0.16956521571 -0.10503214598
          -0.064789518714 -0.00015140815231 0.084619216621 -0.20991282165 0.064491055906 0.16925491393
          0.20961028337 -0.17013886571 0.064775079489 -0.032713066787 -0.065244495869 0.084769502282
          0.16985557973 -0.032651837915 -0.1699617058 -0.10524106771 -0.065018989146 -0.00023320279433
          0.084670431912 -0.21024890244 0.064555257559 0.1694907099 0.20978266001 -0.17031732202
          0.06469219178 -0.032809961587 -0.065328091383 0.084734387696 0.16982705891 -0.032779093832
          -0.17028173804 -0.10541592538 -0.065215609968 -0.00031722255517 0.084684453905 -0.21051460505
          0.064582459629 0.16964508593 0.20988024771 -0.17045925558 0.06460352242 -0.032901510596
          -0.06540851295 0.084676638246 0.16976816952 -0.032891366631 -0.17051538825 -0.10555551946
          -0.065372660756 -0.00040229881415 0.084660246968 -0.21070873737 0.064568415284 0.16971020401
          0.20990416408 -0.17057216167 0.064516231418 -0.032988913357 -0.065491616726 0.084600225091
          0.16969043016 -0.032985892147 -0.17065146565 -0.10565904528 -0.06548269093 -0.00048765103566
          0.084595359862 -0.21083043516 0.064507484436 0.16967603564 0.20985513926 -0.17066559196
          0.060537513345 -0.030625104904 -0.061187189072 0.079002603889 0.15826751292 -0.030550155789
          -0.15900719166 -0.09820895642 -0.06098452583 -0.00028653643676 0.078988432884 -0.19620501995
          0.060475300997 0.15853914618 0.195656389 -0.15887288749 -0.03049339354 -0.15844210982
          -0.060766529292 -0.00029891711893 0.078660383821 0.060248278081 0.15786193311 -0.10296880454
          -0.12749224901 -0.10297422856 -0.039332274348 -0.049073122442 -0.039334904402 -0.00018097959401
          0.038939405233 0.048648681492 0.10257852077 0.10259913653 0.12710447609 0.038938421756
          -0.077270783484 -0.095310181379 -0.077269561589 -0.029656171799 -0.03685573861 -0.029655206949
          -0.00013236398809 0.029397495091 0.036606226116 0.07701060921 0.077005952597 0.095049329102
          0.029398327693 -0.054558217525 -0.067364439368 -0.054558511823 -0.020896181464 -0.026029108092
          -0.02089644596 -6.7812303314e-05 0.020757107064 0.025889826939 0.054421976209 0.054422996938
          0.067228935659 0.020756758749 -0.034410405904 -0.04245487228 -0.034410376102 -0.013184323907
          -0.016421096399 -0.013184227981 -2.9787448511e-05 0.013123832643 0.016362585127 0.03435113281
          0.034350864589 0.042395822704 0.013123911805 -0.016340956092 -0.020120808855 -0.016341034323
          -0.0062682209536 -0.0078312391415 -0.0062681999989 -6.8716653914e-06 0.0062524541281 0.0078173540533
          0.016327256337 0.016327243298 0.020107541233 0.0062523912638 0 0
          0 0 0 0 0 0
          0 0 0 0 0
        </DataArray>
        <DataArray type="Float32" Name="uy" format="ascii" RangeMin="-1.1842718124" RangeMax="1.1842281818">
          -0.1554736495 -0.14691711962 -0.14055635035 1.8427423129e-05 0.15548488498 0.14057981968
          0.14693824947 -0.15536339581 -0.15209159255 -0.096768602729 1.0597968867e-05 0.15211209655
          0.15538187325 0.096788927913 -0.1520408541 -0.097017012537 0.15205425024 0.09703797847
          -0.1300162971 1.0937033949e-05 0.13003793359 -0.13046985865 0.13049042225 0.13027338684
          7.1803096944e-06 -0.1302446872 1.4414837096e-05 0.87998700142 0.78548228741 0.87999206781
          0.83115720749 0.73747336864 0.83113688231 0.74938517809 0.70167982578 0.80776321888
          0.75970923901 0.59653836489 0.5742007494 0.69099068642 0.54974538088 0.52778184414
          0.64371222258 0.50207704306 0.45583221316 0.69100236893 0.64365625381 0.63261055946
          0.5856667757 0.69095498323 0.64388042688 0.50207525492 0.45583859086 0.57419675589
          0.52779620886 0.69095718861 0.6438677907 0.80776333809 0.75971448421 0.92739278078
          0.83218967915 0.9273993969 0.795786798 0.8544382453 0.64206302166 0.61943113804
          0.73697680235 0.54715311527 0.73706668615 0.67828124762 0.73672086 0.54714363813
          0.61943006516 0.73672646284 0.8544369936 0.96745932102 0.87159156799 0.96747332811
          0.83490890265 0.89383906126 0.68034082651 0.65744000673 0.77571201324 0.58497011662
          0.7758654356 0.71670913696 0.77527844906 0.58495503664 0.65743774176 0.77528852224
          0.89383882284 0.99512118101 0.89864403009 0.99513953924 0.86170637608 0.92090529203
          0.70633631945 0.68320095539 0.80214971304 0.61052507162 0.80235505104 0.74285310507
          0.80156970024 0.61050510406 0.68319863081 0.80158311129 0.92090517282 1.0062761307
          0.90924167633 1.0062983036 0.87207430601 0.93153578043 0.71594399214 0.69260764122
          0.81218677759 0.61970311403 0.81243175268 0.75260931253 0.81149560213 0.61967951059
          0.69260507822 0.81151163578 0.93153584003 0.99779784679 0.90025913715 0.99782246351
          0.86288768053 0.92260456085 0.70603793859 0.68253523111 0.80269753933 0.60938054323
          0.80296963453 0.74285191298 0.80193024874 0.6093544364 0.6825324893 0.80194801092
          0.92260479927 0.96755003929 0.86955988407 0.96757596731 0.83200979233 0.8919750452
          0.67448246479 0.65084731579 0.77154570818 0.57742142677 0.77183258533 0.71144479513
          0.77073693275 0.57739400864 0.65084457397 0.77075570822 0.89197540283 0.91437506676
          0.81598591805 0.91440135241 0.77828210592 0.83848798275 0.62011957169 0.59638518095
          0.71757239103 0.52266895771 0.71786224842 0.65722960234 0.71675556898 0.52264130116
          0.59638249874 0.71677452326 0.83848839998 0.83805602789 0.73931902647 0.83808159828
          0.70148569345 0.76192343235 0.54273146391 0.51892912388 0.6405582428 0.44490677118
          0.64083999395 0.57998746634 0.63976424932 0.44487994909 0.51892656088 0.63978272676
          0.76192390919 0.73925071955 0.64021515846 0.73927462101 0.60227537155 0.66293483973
          0.44297432899 0.41913288832 0.54115736485 0.3447932303 0.54142129421 0.48037344217
          0.54041397572 0.34476810694 0.41913056374 0.54043120146 0.66293531656 0.61939758062
          0.52011066675 0.61941915751 0.48208585382 0.54295510054 0.32228463888 0.29842981696
          0.42080357671 0.22376739979 0.42104136944 0.35982233286 0.42013406754 0.22374482453
          0.298427701 0.42014962435 0.54295557737 0.48059472442 0.3811006546 0.48061329126
          0.34301051497 0.40407556295 0.18275789917 0.15891136229 0.28158921003 0.083927981555
          0.28179442883 0.22042767704 0.28101173043 0.08390853554 0.15890955925 0.28102514148
          0.40407598019 0.32545298338 0.22579281032 0.32546818256 0.18765480816 0.24889922142
          0.027001814917 0.0031807909254 0.12611836195 -0.072113640606 0.12628671527 0.064794994891
          0.12564499676 -0.072129547596 0.003179323161 0.12565597892 0.24889956415 0.15692621469
          0.057137276977 0.1569378823 0.018966479227 0.080371126533 -0.14203326404 -0.16581660509
          -0.042662691325 -0.24140307307 -0.042533095926 -0.10412785411 -0.043026570231 -0.24141526222
          -0.16581773758 -0.043018132448 0.080371409655 -0.021878251806 -0.12176265568 -0.021870071068
          -0.15995383263 -0.098410971463 -0.32124391198 -0.34498295188 -0.22165490687 -0.42083251476
          -0.22156335413 -0.28324016929 -0.22191123664 -0.42084103823 -0.34498375654 -0.22190530598
          -0.098410747945 -0.20790551603 -0.30785635114 -0.20790050924 -0.34605827928 -0.28440225124
          -0.50757938623 -0.53127324581 -0.40781211853 -0.60734653473 -0.40775519609 -0.46949398518
          -0.40797054768 -0.60735177994 -0.53127378225 -0.40796691179 -0.28440210223 -0.39837136865
          -0.49836409092 -0.39836901426 -0.53657013178 -0.47482928634 -0.69825989008 -0.72191393375
          -0.5983594656 -0.79816061258 -0.59833067656 -0.6601125598 -0.59843790531 -0.79816305637
          -0.72191423178 -0.59843605757 -0.47482916713 -0.59098905325 -0.69100356102 -0.5909883976
          -0.72920972109 -0.66741544008 -0.89100307226 -0.9146283865 -0.79101890326 -0.99098736048
          -0.79100954533 -0.8528162241 -0.79104304314 -0.99098801613 -0.9146284461 -0.7910425663
          -0.66741538048 -0.78420370817 -0.88422489166 -0.78420376778 -0.92243087292 -0.86061841249
          -1.084258914 -1.1078739166 -0.98424655199 -1.1842718124 -0.98424369097 -1.0460586548
          -0.98425149918 -1.1842718124 -1.107874155 -0.98425126076 -0.86061823368 0.60448402166
          0.53806960583 0.60448461771 0.512760818 0.554025352 0.40429589152 0.38904631138
          0.47156453133 0.33711597323 0.47134771943 0.43008854985 0.47210296988 0.33711224794
          0.38905650377 0.47213980556 0.55404102802 0.11242992431 0.10857751966 0.094771198928
          0.12991648912 0.11922272295 0.094753086567 0.10860276222 -0.83116447926 -0.73747384548
          -0.83114385605 -0.87998604774 -0.78547489643 -0.87999117374 -0.70167726278 -0.74937534332
          -0.75971126556 -0.80775731802 -0.54973298311 -0.52776777744 -0.64370638132 -0.59651786089
          -0.57417881489 -0.69097679853 -0.4558133781 -0.50205004215 -0.64365035295 -0.69098842144
          -0.58565658331 -0.63259255886 -0.64387446642 -0.69094115496 -0.45581993461 -0.5020481348
          -0.52778226137 -0.57417470217 -0.64386123419 -0.69094336033 -0.75971651077 -0.80775749683
          -0.92738503218 -0.83217537403 -0.92739158869 -0.79576998949 -0.85442554951 -0.64203554392
          -0.61940217018 -0.73695594072 -0.54711908102 -0.73704582453 -0.67825633287 -0.73669999838
          -0.54710960388 -0.6194010973 -0.73670566082 -0.8544242382 -0.96744596958 -0.87157160044
          -0.96745991707 -0.83488643169 -0.89382064342 -0.68030762672 -0.65740531683 -0.77568542957
          -0.58493030071 -0.77583885193 -0.71667850018 -0.77525192499 -0.58491516113 -0.65740305185
          -0.77526199818 -0.89382040501 -0.99510347843 -0.8986197114 -0.99512183666 -0.86167949438
          -0.92088258266 -0.70629870892 -0.68316185474 -0.80211877823 -0.61048084497 -0.80232411623
          -0.74281805754 -0.80153882504 -0.61046081781 -0.68315953016 -0.80155223608 -0.92088246346
          -1.0062556267 -0.90921449661 -1.0062777996 -0.8720446229 -0.93151021004 -0.71590346098
          -0.69256561995 -0.81215292215 -0.61965590715 -0.81239789724 -0.75257140398 -0.8114618659
          -0.61963224411 -0.69256299734 -0.81147789955 -0.93151026964 -0.9977760911 -0.90023064613
          -0.99780064821 -0.86285662651 -0.92257773876 -0.70599603653 -0.68249177933 -0.80266237259
          -0.60933190584 -0.80293446779 -0.74281257391 -0.8018951416 -0.60930579901 -0.68248903751
          -0.80191290379 -0.92257797718 -0.96752852201 -0.86953169107 -0.96755450964 -0.83197903633
          -0.89194852114 -0.67444080114 -0.65080410242 -0.77151077986 -0.5773729682 -0.77179765701
          -0.71140575409 -0.77070212364 -0.57734555006 -0.65080136061 -0.77072089911 -0.89194881916
          -0.91435545683 -0.81595957279 -0.91438174248 -0.77825319767 -0.83846330643 -0.62007969618
          -0.59634375572 -0.71753931046 -0.52262228727 -0.71782910824 -0.65719234943 -0.7167224884
          -0.52259463072 -0.59634107351 -0.71674150229 -0.83846372366 -0.83803987503 -0.73929607868
          -0.83806538582 -0.70146018267 -0.76190215349 -0.54269492626 -0.51889097691 -0.64052850008
          -0.44486343861 -0.64081031084 -0.57995355129 -0.63973462582 -0.44483658671 -0.51888847351
          -0.63975304365 -0.76190257072 -0.73923939466 -0.64019709826 -0.73926329613 -0.60225468874
          -0.66291838884 -0.44294258952 -0.41909959912 -0.5411324501 -0.34475463629 -0.54139637947
          -0.4803443253 -0.54038912058 -0.34472954273 -0.41909724474 -0.54040634632 -0.66291880608
          -0.61939245462 -0.52009868622 -0.6194139719 -0.48207131028 -0.54294484854 -0.32225903869
          -0.29840260744 -0.42078483105 -0.22373493016 -0.42102262378 -0.35979935527 -0.42011538148
          -0.2237123549 -0.29840052128 -0.42013090849 -0.54294526577 -0.48059695959 -0.38109606504
          -0.48061552644 -0.34300333261 -0.40407261252 -0.18273958564 -0.15889146924 -0.28157779574
          -0.083902798593 -0.28178298473 -0.22041200101 -0.28100034595 -0.083883360028 -0.1588896662
          -0.28101372719 -0.40407302976 -0.3254635632 -0.22579655051 -0.32547876239 -0.18765594065
          -0.24890460074 -0.02699181065 -0.0031691894401 -0.12611524761 0.072130531073 -0.12628358603
          -0.064787626266 -0.12564189732 0.072146438062 -0.0031677165534 -0.12565287948 -0.24890494347
          -0.15694595873 -0.057150151581 -0.15695762634 -0.018976731226 -0.080385640264 0.14203415811
          0.16581910849 0.042656686157 0.24141085148 0.042527101934 0.10412611067 0.043020546436
          0.24142305553 0.16582024097 0.043012108654 -0.080385923386 0.021848745644 0.12174003571
          0.021840568632 0.15993383527 0.098386704922 0.32123509049 0.34497570992 0.22163917124
          0.42083057761 0.22154761851 0.28322869539 0.22189548612 0.42083910108 0.34497654438
          0.22188954055 0.098386488855 0.20786581933 0.30782356858 0.20786082745 0.34602808952
          0.28436782956 0.50756043196 0.53125590086 0.40778622031 0.60733443499 0.40772929788
          0.46947234869 0.40794464946 0.60733968019 0.5312563777 0.40794101357 0.28436768055
          0.39832124114 0.49832084775 0.39831888676 0.53652954102 0.47478443384 0.69823050499
          0.72188615799 0.59832316637 0.79813808203 0.59829437733 0.6600804925 0.59840154648
          0.79814058542 0.72188645601 0.59839975834 0.47478431463 0.59092831612 0.69094979763
          0.59092772007 0.7291585803 0.66736000776 0.89096313715 0.91459006071 0.790972054
          0.9909543395 0.79096269608 0.85277360678 0.79099613428 0.99095499516 0.91459012032
          0.79099565744 0.66736000776 0.78413248062 0.88416051865 0.78413248062 0.92236912251
          0.86055243015 1.0842083693 1.1078250408 0.98418909311 1.1842281818 0.98418623209
          1.0460054874 0.9841940403 1.1842281818 1.10782516 0.98419380188 0.86055225134
          -0.6044896841 -0.53807038069 -0.60449182987 -0.51276093721 -0.55402696133 -0.40428325534
          -0.38903212547 -0.47155788541 -0.33709663153 -0.47134178877 -0.43008038402 -0.47209662199
          -0.33709317446 -0.38904422522 -0.47213685513 -0.55404311419 -0.11240246147 -0.1085523814
          -0.09474080801 -0.12989258766 -0.11919223517 -0.094719439745 -0.10856879503 0.074956379831
          6.8842141445e-06 -0.074942365289 -0.12110138685 6.8844151428e-06 0.12111551315 5.7328343246e-06
          -0.12107163668 4.5194242375e-06 -0.074880152941 0.074893414974 7.5948037193e-06 0.12108710408
          0.055949535221 4.8783067541e-06 -0.055939890444 -0.090650767088 4.8406895985e-06 0.090660460293
          5.1525576055e-06 -0.090658597648 5.5030291151e-06 -0.055955883116 0.055965840816 4.7218650252e-06
          0.090668201447 0.039559550583 2.9673226436e-06 -0.03955360502 -0.064042307436 2.9690556858e-06
          0.064048215747 2.8825936624e-06 -0.064041465521 2.7851681352e-06 -0.039551410824 0.039557237178
          2.9987381822e-06 0.064047321677 0.024941191077 1.3825773522e-06 -0.024938458577 -0.040408473462
          1.3568137547e-06 0.040411166847 1.3734199911e-06 -0.04040947929 1.4045017451e-06 -0.024940358475
          0.024943120778 1.3752685391e-06 0.040412202477 0.011828384362 4.0315964611e-07 -0.011827611364
          -0.019196512178 3.6938868675e-07 0.019197216257 3.5891414996e-07 -0.019197328016 3.5962526113e-07
          -0.011828898452 0.011829667725 4.0790496314e-07 0.019198022783 0 0
          0 0 0 0 0 0
          0 0 0 0 0
        </DataArray>
        <DataArray type="Float32" Name="uz" format="ascii" RangeMin="-0.10885027051" RangeMax="0.10884531587">
          -0.00074142630911 0.00067180610495 -0.0020201297011 6.4674150053e-06 0.0007415539003 0.0020285588689
          -0.00066698034061 0.00070403050631 0.0047492636368 0.00091243546922 3.114502988e-06 -0.0047512520105
          -0.00070337293437 -0.00090691796504 -0.0047664744779 -0.0011352329748 0.004773969762 0.001149980817
          0.0028703971766 3.4607562611e-06 -0.002870106604 0.005595494993 -0.0055952924304 0.0056464313529
          9.2071722975e-06 -0.0056338422 3.9589731387e-06 0.0078639602289 -0.0041866065003 -0.0082925446332
          0.0075258105062 -0.0040333112702 -0.0079464055598 0.010310332291 0.0098980767652 0.020983513445
          0.020062413067 -0.004146119114 -0.021284556016 -0.013119556941 -0.0039179348387 -0.020159106702
          -0.012571887113 -0.0082089798525 -0.0077135548927 -0.00015848751354 -0.00015653540322 0.010353585705
          0.0098325079307 -0.026323964819 -0.025167848915 0.0079789003357 0.0074992952868 0.021057667211
          0.019957158715 0.025970228016 0.024816164747 -0.021325161681 -0.020439213142 0.0071363686584
          -0.0038214889355 -0.0075443806127 0.0093657420948 0.019044315442 -0.0037798141129 -0.019338948652
          -0.011946643703 -0.007463125512 -0.0001580893877 0.0093904417008 -0.023928817362 0.0072185350582
          0.019099269062 0.023580789566 -0.019386488944 0.0054501802661 -0.0029747169465 -0.0058415201493
          0.0071607786231 0.014613579027 -0.0029418696649 -0.014907498844 -0.0092183398083 -0.0057749324478
          -0.00015869295748 0.0071810605004 -0.018442230299 0.0055154794827 0.014652235433 0.018098225817
          -0.014949974604 0.0029684889596 -0.0017306668451 -0.0033423181158 0.0039157769643 0.0080949049443
          -0.0017059138045 -0.0083962855861 -0.0052050705999 -0.0032930655871 -0.00015895362594 0.0039310054854
          -0.010380342603 0.0030179878231 0.0081259133294 0.010041494854 -0.008426415734 -0.00014117028331
          -0.00017255193961 -0.00021488356288 -0.00015103419719 -6.6648208303e-05 -0.00015618489124 -0.00023951202456
          -0.00017574103549 -0.00018208856636 -0.00015928120411 -0.00014086654119 -0.00028629638837 -0.00010837155423
          -4.645016088e-05 -4.7529996664e-05 -0.00025982604711 -0.0037081134506 0.0016141923843 0.0033697653562
          -0.004816506058 -0.0094258133322 0.0016223464627 0.0091144116595 0.0055936244316 0.0033860353287
          -0.00015956506832 -0.0048114871606 0.011287944391 -0.0036918548867 -0.0094157587737 -0.011616619304
          0.0091043552384 -0.0075617814437 0.0035442574881 0.0072407806292 -0.0098573807627 -0.019535042346
          0.0035443261731 0.019218599424 0.011826966889 0.0072408793494 -0.00015983334742 -0.0098573332652
          0.023789204657 -0.0075616678223 -0.019534979016 -0.024112850428 0.019218530506 -0.011535786092
          0.0055344356224 0.01123141963 -0.015056098811 -0.029958484694 0.005526766181 0.02963729389
          0.018255345523 0.01121601928 -0.00016007898375 -0.015060841106 0.036678664386 -0.011551174335
          -0.029968004674 -0.036997534335 0.029646800831 -0.015472861938 0.0075060729869 0.01518407464
          -0.020206971094 -0.040283940732 0.0074911387637 0.039958417416 0.024624446407 0.015154127032
          -0.00016030369443 -0.020216202363 0.049446683377 -0.015502791852 -0.0403024517 -0.049761202186
          0.039976909757 -0.019229598343 0.009387454018 0.01895500347 -0.025122467428 -0.050135560334
          0.0093658715487 0.049806248397 0.030702419579 0.018911745399 -0.00016050701379 -0.025135807693