<VTKFile type="UnstructuredGrid" version="1.0" byte_order="LittleEndian" header_type="UInt64">
  <UnstructuredGrid>
    <Piece NumberOfPoints="791" NumberOfCells="973">
      <PointData>
        <DataArray type="Float32" Name="ux" format="ascii" RangeMin="-0.068446137011" RangeMax="0.097841955721">
          0.025235194713 0.0091721164063 -0.014375026338 0.027166686952 -0.01144574862 -0.014018298127
          0.0082148360088 -0.006622269284 0.0035677505657 0.0061926837079 0.02119737491 0.004427054897
          -0.0039272983558 -0.00027589444653 0.009753184393 -0.010294733569 -0.0081621594727 0.012206001207
          0.019878268242 0.0039438791573 -0.01272834558 -0.0018453146331 0.01217497047 -0.00023694924312
          0.012278219685 0.0055842320435 0.0045684524812 -0.011539539322 0.060897361487 -0.043627146631
          -0.017659246922 0.097841955721 -0.060960970819 -0.051872082055 -0.044140059501 0.023996651173
          0.0036396395881 0.021161947399 0.0078330412507 -0.015027550049 0.030911717564 0.0046312264167
          -0.027249110863 0.0043898215517 0.0092128049582 -0.041935756803 -0.057267721742 0.057365898043
          0.063474334776 0.0064340564422 0.002871272387 -0.020671045408 -0.013164646924 -0.0084046218544
          -0.0065336595289 -0.010801956058 -0.0035005167592 -0.012155254371 -0.003166354727 -0.029662773013
          0.011494236998 -0.023860091344 -0.016043668613 0.010999505408 -0.010941230692 0.024432327598
          0.0019468533574 0.016220495105 -0.012189269997 -0.026688762009 0.019367948174 0.00076941208681
          -0.0036533549428 -0.0056047001854 0.013571998104 -0.01755495742 0.0020280727185 0.019858736545
          0.017502907664 -0.018995145336 -0.033075917512 0.0097887283191 0.024679066613 0.0080673079938
          -0.028121108189 -0.04650631547 0.016487600282 -0.014313415624 -0.0066440314986 -0.0017204558244
          -0.002941777464 0.0035518191289 0.028817005455 -0.0029947706498 0.014800364152 0.0040078391321
          -0.0044130920433 0.0026190723293 -0.0068777827546 -7.1241520345e-05 -0.013470722362 -0.011802510358
          0.0038117445074 6.8482677307e-06 0.014483140782 -0.0071242083795 0.0016352358507 0.041441686451
          0.038632564247 0.019992634654 0.014320200309 0.018158249557 0.037866409868 -0.031831465662
          -0.004905346781 -0.039008136839 -0.030853018165 0.022163314745 -0.0036944029853 -0.010687548667
          -0.0062261028215 0.0065147718415 -0.0088014965877 0.020966151729 0.0087653500959 0.0071363025345
          0.0058249318972 0.010665229522 0.0056689498015 -0.00035399306216 -0.03136087209 -0.038563240319
          -0.0073704980314 -0.015763040632 -0.0090616010129 -0.0087981317192 -0.010502260178 0.01479134988
          0.00073416222585 -0.0002150299988 -0.032600242645 0.029936049134 -0.0084463097155 -0.0079664606601
          0.0062616383657 0.0129491603 0.042290881276 0.020169232041 -0.0027494714595 0.0085103632882
          0.0073285405524 -0.0033064063173 -0.018302761018 -0.0012874802342 -0.0095876678824 -0.0067534665577
          -0.013324587606 0.014761081897 -0.0033028325997 -0.00072121759877 0.021231722087 0.004421885591
          -0.0028033819981 0.0012821839191 -0.031348958611 0.010860768147 -0.0087919905782 -0.02616513148
          -0.034046057612 -0.018403034657 -0.015401541255 0.023427447304 -0.018032476306 0.012158917263
          0.0030230600387 0.014178100973 0.039889968932 0.0082157496363 0.0096234129742 -0.008070891723
          -0.011116679758 0.032439634204 -0.00024014274823 -0.032064255327 -0.032592155039 -0.0012797355885
          0.00184595678 0.013508321717 -0.017792994156 0.017944300547 -0.00029779731994 0.01934360899
          -0.017021143809 -0.0015470532235 -0.0056547150016 -0.01079311315 0.032617073506 -0.015453644097
          -0.0053290990181 -0.0080541064963 0.01113901753 -0.0065625533462 0.0035009470303 0.0081296199933
          -0.0021103862673 0.0035296787973 -0.028591189533 0.020838089287 -0.063002921641 -0.0018447221955
          0.022682644427 0.010482275859 0.050855729729 -0.038656190038 0.0029237677809 0.019092289731
          0.027268491685 -0.014910461381 0.005045380909 -0.0073017687537 0.031096020713 -0.010326424614
          0.015922766179 -0.012071450241 -0.0269672703 0.0064827301539 0.042665459216 0.0022344221361
          -0.027453785762 -0.044551536441 0.00018907690537 0.0016850735992 0.0072310022078 -0.010095684789
          -0.0048933704384 -0.012523407117 0.013270971365 5.5125488871e-05 0.02828801237 -0.013216233812
          0.0037872341927 0.0030652047135 0.026435917243 0.01841307804 -0.017155356705 -0.022131456062
          0.0028341158759 0.0080627258867 0.0030842497945 -0.0004654522927 -0.0052198539488 -0.028545498848
          -0.0065669044852 -0.024179395288 0.038802228868 -0.003426119918 0.036191426218 -0.00060792145086
          -0.0017746407539 0.0054422630928 -0.033466663212 0.00908193551 -0.010018819012 0.020048417151
          0.018790982664 0.014757313766 -0.01621010527 -0.027486145496 -0.024300476536 -0.0056664692238
          0.0072363181971 -0.017769964412 0.0054494594224 0.010047951713 -0.021257584915 -0.018898556009
          -0.0054550748318 -0.018295157701 -0.0072458158247 -0.014148124494 -0.0060776933096 -0.0062805353664
          -0.0087043847889 0.0024152472615 0.010992349125 -0.0061339875683 -0.010047574528 -0.00015992700355
          0.0013807527721 0.019946457818 0.0099328206852 0.026615282521 0.011346289888 0.032733738422
          0.012418124825 -0.019300496206 0.0074867592193 0.0023084070999 0.020730365068 0.0079842796549
          -0.012239607982 0.022868264467 0.016796028242 -0.0079698320478 -0.024411480874 -0.0017127559986
          0.021409129724 0.012244341895 0.005721998401 -0.019533261657 0.013050918467 -0.015080519952
          0.0023470395245 0.0016800411977 0.013627954759 0.017778221518 -0.00058374757646 -0.0032943920232
          0.0081451516598 0.017635751516 0.011685398407 -0.017869865522 -0.020725563169 -0.022785970941
          -0.0047953771427 -0.0045078336261 -0.0064956364222 -0.0067619532347 0.007251388859 0.0024600527249
          0.0033850516193 0.0051439646631 0.0048940218985 -0.0018828436732 -0.0039236373268 -0.0029233985115
          0.0080438293517 -0.0044990489259 -0.0070692976005 -0.019220668823 -0.0024765981361 -0.00034335456439
          -0.0038897062186 -0.00033320276998 0.0040698996745 0.0034958664328 0.0018275887705 -0.011106325313
          0.042910024524 -0.042728092521 -0.027380932122 0.0066224844195 0.0072470917366 -0.0071638664231
          -0.016245042905 0.005983130075 -0.029634645209 0.055295735598 -0.0066610448994 -0.012536417693
          -0.017881542444 0.0060811066069 -0.0049584694207 0.00400857348 0.0051145879552 -0.013914701529
          -0.0040632430464 0.0010719570564 -0.0047433190048 -0.0011310642585 0.031316597015 -0.028484351933
          0.029688723385 0.031604036689 0.025108899921 0.00034177917405 -0.02762805298 -0.028716204688
          0.0061916061677 0.019067918882 -0.0068831606768 0.0071670371108 -0.0052404291928 -0.0031438309234
          -0.0010672031203 -0.013220027089 -0.00018684388488 -0.0054250964895 0.018294092268 -0.00031666245195
          0.022829554975 0.022989366204 -0.0097686462104 -0.0036138060968 -0.028010915965 -0.021962078288
          -0.022471824661 -0.02480635047 -0.0092486450449 -0.00074219494127 0.0070723006502 0.00015007719048
          0.023502942175 -0.010430698283 0.021736523136 -0.0019336219411 0.010907613672 -0.0061175432056
          -0.0038977095392 -0.0026063257828 0.002389738569 0.037758268416 -0.016582017764 -0.0054277498275
          -0.017173141241 0.00027394591598 -0.0010076330509 0.0023770784028 -0.016341969371 -0.040320854634
          0.014203151688 0.034720893949 -0.023012818769 -0.01242654305 -0.0023360834457 -0.038487676531
          0.0014915431384 0.027782035992 -0.038550257683 -0.0053266226314 0.012665318325 0.014135356992
          0.010653409176 0.0021562934853 0.012382295914 -0.015120118856 0.017127638683 0.016059253365
          -0.0048598144203 -0.021053362638 -0.00035743473563 -0.0014523469144 -0.002324545756 0.035117965192
          -0.033821664751 -0.010630699806 -0.0028940457851 -0.0094733284786 0.0064614694566 -0.0010851456318
          0.035078465939 0.036741107702 0.028496697545 0.012462402694 0.0038017141633 0.019388590008
          0.0040214867331 0.036357089877 -0.0029024297837 0.02002550289 -0.015684697777 -0.0056209028699
          -0.0083511583507 -0.024630473927 -0.0083714388311 0.013526814058 -0.0039442670532 0.026196494699
          -0.0071173850447 0.01105062943 0.0043772002682 0.02797206305 0.0076973545365 -0.002816059161
          -0.039730694145 -0.032559834421 -0.0293445196 -0.0046518933959 -0.010173735209 -0.0054712607525
          -0.0087939631194 0.010366087779 -0.0038625064772 -0.0066892211325 -0.014257425442 -0.013126701117
          0.0036128072534 -0.012100575492 0.010460315272 -0.016322594136 -0.017421020195 -0.032889835536
          -0.011456093751 -0.0060822553933 -0.017064649612 -0.0022988410201 -0.0077552199364 0.0029213051312
          0.016738981009 -0.018129687756 -0.0035061889794 -0.0010582093382 0.012593576685 -0.059595432132
          -0.0083932094276 0.026874408126 0.031927969307 0.0034499499016 0.0097855795175 6.1443635786e-05
          -0.015523245558 0.0013046818785 0.0031905537471 -0.018600404263 0.017960796133 -0.00079466408351
          0.010051170364 0.03066614829 0.0022602893878 0.0023853862658 0.00029839866329 0.019234126434
          0.010187984444 0.0083422185853 0.0060743810609 0.0032919871155 -0.0044069020078 -0.0071375807747
          0.015556612052 -0.0046897376888 0.0099287312478 -0.015341832303 0.013394439593 0.02306987159
          0.015702471137 -0.0044492245652 -0.0099195213988 0.018344290555 0.0040172771551 -0.0046233418398
          0.011010246351 -0.010041904636 0.0087524643168 0.0042786379345 0.0081644905731 -0.017954006791
          0.0058704824187 -0.053879227489 0.046779792756 -0.0058657606132 0.0084057878703 -0.0066138422117
          0.00081902282545 0.020976621658 -0.0018040734576 0.033397432417 -0.028359483927 0.0077355303802
          0.008701229468 0.0031596659683 -0.014854187146 -0.0035758030135 0.014601156116 -0.050996962935
          0.035435155034 -0.031158188358 0.0031259190291 -0.0162550807 0.0073228022084 0.0038361721672
          0.0073765474372 0.031335283071 -0.033414773643 0.0022423842456 -0.010021573864 -0.0047395830043
          -0.022664889693 0.00050204491708 0.01753821969 -0.0033435402438 0.00032026259578 0.01462250948
          -0.0051931529306 -0.049246702343 -0.0068664480932 -0.0012923710747 0.025510860607 0.029240310192
          -0.011165634729 -0.018166171387 -0.0033431125339 -0.013717055321 -0.00014127697796 -0.0057976185344
          -0.0051716850139 0.017133006826 -0.0092140566558 0.02259963192 -0.0088643953204 -0.020412465557
          -0.02403203398 -0.0034460427705 -0.0018167941598 -0.013192932121 -0.0018645719392 -0.023249523714
          0.016107650474 0.00022299360717 0.00878733024 -0.018221432343 0.013593791984 0.022012736648
          -0.037616368383 -0.0037783291191 0.0092326626182 -0.030178299174 -0.0097998604178 0.012676635757
          0.030838020146 -0.0076806559227 0.046892791986 -0.0077086077072 0.026323238388 0.010353435762
          0.016618372872 -0.030197780579 0.020470874384 -0.0084872152656 -0.0088490601629 -0.066216491163
          0.0059823300689 -0.025357743725 0.0067056622356 0.027620719746 0.029071239755 0.029174901545
          0.0018783437554 0.012956799939 0.005583116319 0.0074991257861 -0.019988324493 -0.0039005202707
          0.031138770282 -0.0013119848445 0.0078899804503 -0.068446137011 0.020449111238 0.0022369727958
          0.0081909634173 0.016883241013 -0.0030073630624 0.019290981814 -0.0045391633175 0.0063123647124
          -0.0098317507654 0.00040384609019 -0.024960380048 0.0057962411083 -0.0066117956303 -0.021541342139
          0.0015407686587 0.036634340882 0.0010146127315 0.015064116567 -0.01868246682 -0.020011790097
          -0.014188192785 -0.031161518767 -0.019496086985 0.0049954126589 0.0053942790255 0.023010890931
          0.014034710824 -0.015743797645 -0.012649119832 -0.0037180942018 0.007116062101 0.042430389673
          -0.013278025202 -0.0032873323653 0.0006511589163 -0.0038426979445 0.0032693410758 0.006587379612
          -0.012396791019 0.006199750118 0.0039985068142 0.0088767427951 0.012754390016 8.2950675278e-05
          0.0091504538432 -0.013723349199 0.014129782096 -0.050571151078 -0.0044442848302 0.014287269674
          0.01266302634 -0.0026018980425 0.0012445281027 0.048990465701 0.021063201129 -0.0012290469604
          -0.0067624319345 -0.0019685567822 -0.00037471018732 0.011192757636 -0.012295839377 -0.00068338826532
          0.0037307280581 0.028212891892 0.0052526551299 0.0052162334323 -0.0036649398971 -0.0092007685453
          -0.023855978623 -0.010273820721 -0.02505941689 -0.010705002584 -0.0014521313133 0.0007928609848
          0.0087923817337 0.050866845995 0.017453448847 0.014802681282 0.017609830946 0.033767450601
          0.017391966656 -0.015066165477 0.0095457741991 0.016657568514 0.010157030076 -0.0062093082815
          0.025080800056 -0.013560518622 -0.0024354595225 0.0041229296476 -0.018620701507 0.0052356282249
          0.030415628105 -0.024616109207 -0.03485981375 -0.017750453204 0.004534449894 -0.019760821015
          -0.0038973158225 0.037492249161 -0.00034116356983 0.05163077265 0.00035862057121 -0.012473590672
          0.01336751692 0.031372513622 -0.029849259183 -0.022274116054 -0.025943055749 -0.022436629981
          -0.038069676608 -0.031463745981 -0.030184235424 0.0048316237517 -0.0055632530712 -0.00038465956459
          -0.013111433946 0.0057522277348 -0.033378127962 -0.025875572115 0.00034487049561 -0.032861214131
          -0.026055503637 -0.040825076401 -0.032885130495 -0.0086796982214 0.017947088927 -0.010942902416
          0.013956909999 0.020565267652 -0.0036834091879 0.011706700549 0 0
          0 0 0 0 0 0
          0 0 0 0 0
        </DataArray>
        <DataArray type="Float32" Name="uy" format="ascii" RangeMin="-0.15097996593" RangeMax="0.1889514178">
          0.024865185842 0.0050702597946 -0.011400315911 0.11532130837 -0.0074915373698 0.022609008476
          -0.023504922166 0.017324244604 -0.0057856710628 0.010787446052 0.080041855574 0.012396210805
          0.030712332577 -0.020478058606 0.023882679641 -0.045439708978 -0.0052953604609 -0.048555456102
          -0.01216926612 0.0094468072057 0.03774709627 -0.018572824076 -0.020240338519 0.0043348283507
          0.044950995594 0.00027311668964 -0.08846885711 0.023877434433 0.0081968866289 -0.023401672021
          0.0078112157062 0.0026489493903 -0.039568062872 0.017899258062 -0.014363534749 -0.024773163721
          -0.0040675671771 0.027168046683 -0.0034254917409 0.045468941331 0.023088399321 -0.010281024501
          0.06567312777 -0.00098266277928 0.0066971909255 -0.022234337404 -0.047932781279 0.019672138616
          0.029869785532 -0.02449223958 -0.026695858687 0.014288524166 0.0053027351387 0.0018474343233
          -0.0043700304814 0.016970982775 0.016014995053 0.0013276736718 -0.017255555838 0.024993550032
          -0.017141120508 0.0076465010643 0.0640533939 -0.015544551425 -0.028556292877 -0.0069664162584
          0.032937437296 -0.014299705625 -0.041681833565 0.0099384607747 -0.0079047372565 -0.01047446765
          -0.021018818021 -0.040884692222 0.024618597701 -0.00071604846744 -0.018251426518 -0.0029967306182
          -0.0087597444654 0.0265874248 -0.023763876408 -0.011236272752 0.026157062501 -0.011351753958
          -0.013277034275 -0.018374741077 -0.02840517275 -0.013530255295 -0.0070851468481 0.00092886935454
          -0.0071814539842 0.0072662523016 -0.017372800037 -0.013236483559 0.011757705361 0.011339158751
          -0.0030001259875 0.0023512819316 0.031562436372 0.0051711210981 0.018546404317 -0.0066295396537
          -0.034707646817 -0.002429992659 0.011395022273 0.020757166669 -0.013489368372 -0.00010204765567
          0.0035792861599 -0.004036155995 0.03047904186 -0.015228603967 -0.026764377952 0.01694617793
          0.036638297141 0.022296978161 -0.0038179468829 0.052249416709 -0.02559154667 -0.012143022381
          -0.007835816592 -0.00077165500261 -0.010299550369 0.0060989698395 -0.0014819789212 0.010135517456
          0.019296638668 0.0038458381314 -0.02666717954 -0.0004110376176 0.017442410812 0.0083755915985
          -0.020817983896 0.019505433738 -0.025696959347 -0.013653950766 -0.0011563146254 0.00036988212378
          -0.0038052310701 -0.0091229621321 0.0024939507712 0.02353961207 -0.00077230617171 0.011374073103
          -0.012017739937 -0.0081150690094 0.013418328948 -0.00181658566 -0.020818859339 0.0025154247414
          -0.027997704223 -0.0040145940147 -0.0042078238912 -0.002938388614 -0.0063343984075 -0.00042539631249
          -0.013154166751 0.02324376069 0.017401605844 -0.0085167242214 0.013735799119 0.008343600668
          0.022889964283 0.0038996445946 -0.031344469637 0.0018558748998 0.0024015111849 0.00037388966302
          -0.004174055066 -0.015626199543 0.016289334744 -0.020611148328 0.007134840358 0.018333563581
          -0.034625858068 -0.0075784227811 -0.0093655036762 -0.00047167795128 -0.025783222169 0.003666426288
          -0.03537068516 0.0028405070771 0.01825619489 0.0017019766383 -0.024823211133 -0.020676890388
          0.010687802918 -0.014170464128 0.0017241126625 0.018819589168 0.020713401958 -0.022314980626
          0.018234685063 0.012151172385 0.045664802194 0.0035825860687 -0.0071791280061 -0.018542908132
          0.0053403005004 0.011622084305 0.029020372778 -0.0080848960206 0.031163875014 -0.0084392242134
          0.011718664318 0.0059210024774 0.055675968528 -0.03133334592 0.01185058523 0.0097157508135
          0.047791924328 0.0015628079418 -0.019298318774 -0.0064476807602 -0.00046055126586 0.021791744977
          0.034206490964 0.00080757268006 -0.004264571704 -0.014635259286 0.018282521516 -0.013940342702
          -0.008492488414 0.017746737227 -0.037907000631 -0.019132001325 0.003797510406 -0.021818833426
          -0.020391548052 -0.0013560196385 -0.023952430114 -0.0075858221389 0.013709514402 0.0039729750715
          -0.045593105257 0.0076144360937 0.018243582919 -0.0027032154612 -0.0038997812662 0.031021695584
          -0.011289447546 -0.011560779065 -0.030342148617 -0.014224469662 0.017696199939 -0.0047268797643
          0.010286044329 -0.0063824923709 0.014575684443 0.011857125908 -0.0046526044607 0.01625649631
          0.026612576097 0.01210065186 -0.013143189251 0.019353846088 -0.011041664518 -0.0048966254108
          -0.043396644294 -0.002968077315 0.011990923434 -0.020420236513 0.021960461512 -0.0093199387193
          0.018011663109 -0.0014165545581 0.0053980448283 0.008197450079 -0.015890287235 0.0084567787126
          0.0086902473122 0.0107780369 -0.0048175514676 -0.013511290774 -0.01047433354 -0.003595699789
          0.0073746936396 -0.01202015765 -0.01327380538 -0.0092636914924 0.020412033424 0.0059795891866
          0.017338125035 -0.011064575054 -0.023982083425 -0.012466325425 0.012403984554 -0.016460871324
          0.040873579681 -0.031197289005 -0.051766507328 -0.025188501924 -0.0115644373 -0.030088849366
          0.023886810988 -0.0066052018665 0.0075554777868 0.013774507679 -0.011985750869 -0.016466459259
          -0.010328599252 -0.013352059759 0.0035056006163 0.0038320235908 0.045463882387 -0.0067151319236
          -0.033534057438 -0.012236051261 0.04037855193 -0.0092512574047 0.018960071728 0.0022437719163
          0.012547036633 0.01743307896 -0.012826674618 0.0079247923568 -0.0066066910513 -0.0091834859923
          0.027053462341 -0.031683333218 0.013779125176 0.0014159361599 -0.034286033362 0.0091408165172
          0.035988625139 0.015926923603 0.018011651933 0.0013133448083 0.013276282698 0.00070903584128
          0.0086084343493 0.0010744904866 0.0054216883145 -0.0048079462722 -0.0050897020847 -0.0036138524301
          -0.0056630973704 0.0029920649249 -0.0042015300132 0.0036274746526 0.0039758058265 0.008375714533
          -0.0018683379749 0.00027070572833 0.0029949713498 0.0020336240996 0.00061654904857 0.0094975251704
          -0.0065655447543 -0.0020032112952 0.021504793316 -0.027043191716 0.013560609892 0.010660929605
          0.071024611592 0.017423385754 -0.063969381154 0.041569359601 0.006810918916 0.0045610531233
          -0.026306083426 -0.015685390681 0.0022499540355 0.011652406305 -0.0085757188499 0.0054925531149
          -0.022010661662 0.00090749119408 -0.0035831565037 0.0052958899178 0.0330241099 0.018827790394
          0.0063165398315 0.0066144634038 0.0065427920781 -6.602628855e-05 0.011929560453 -0.0050951661542
          0.0026194371749 0.020929249004 -0.039508886635 -0.0029627012555 0.0078833410516 -0.019914742559
          -0.010246101767 -0.032115913928 -0.010197440162 -0.018440578133 0.01202826295 0.025446871296
          -0.031574588269 -0.031019356102 -0.0017624779139 0.01720719412 -0.0079814745113 -0.0074475775473
          0.0079017290846 0.012568674982 -0.01301425416 -0.0041641066782 0.0037747239694 -0.003000673838
          0.0025929571129 0.0071779713035 -0.014280806296 -0.0076331389137 0.013743048534 -0.019061218947
          0.0056562339887 0.013419319876 -0.0022463600617 -0.027205821127 0.042008884251 0.006892462261
          -0.0015534667764 -0.020804680884 -0.010204785503 -0.012360713445 0.0044301697053 0.032247103751
          -0.008446871303 0.0046300259419 -0.0095458664 0.0085767032579 0.022001570091 0.021190704778
          0.026271702722 -0.046837061644 0.025451833382 0.012954066508 0.0003612912551 -0.012635356747
          0.002773136599 -0.017808843404 -0.0090014897287 0.0058851423673 -0.0063678170554 -0.031500950456
          -0.0013901325874 0.003759251209 0.020989825949 0.02104008384 0.00247328775 -0.0041775647551
          -0.02403363958 0.017787590623 -0.014224941842 -0.016522489488 -0.013530359603 -0.0067216418684
          0.0088314944878 -0.017518619075 -0.0154001927 0.013762393966 -0.01817284897 0.03805488348
          0.018878590316 0.040244992822 -0.0016728321789 -0.0087781352922 -0.0011783159571 0.011769008823
          -0.0065590944141 -0.004151570145 -0.018968516961 0.0076031084172 -0.013642170466 -0.011960519478
          -0.0042390204035 0.0038341179024 -0.021345907822 0.043298184872 -0.0017701743636 0.004848702345
          0.0052804262377 -0.016653034836 -0.0091432621703 0.020298039541 -0.0037026847713 -0.0071044182405
          -0.018057558686 0.0025595293846 -0.0093533303589 -0.0038248195779 -0.0045441268012 -0.0067776911892
          -0.012525066733 0.0026898616925 -0.0063566262834 -0.022237151861 0.0047556017525 0.017065469176
          -0.0045088338666 0.021708713844 -0.0016568808351 0.0055693998002 -0.0036742743105 0.013829867356
          0.018187614158 0.0018309216248 0.0080846445635 0.013276140206 0.011717359535 -0.018578266725
          0.0030369218439 -0.040507264435 0.0093277525157 0.044361017644 0.0059569193982 0.0068419268355
          -0.013615010306 -0.0073962071911 -0.0038935528137 0.024852529168 0.0096571752802 -0.00741594797
          -0.0010055614403 0.023556105793 -0.025733359158 0.0088483337313 -0.012943852693 -0.012770971283
          -0.00016330600192 -0.0080787334591 -0.0079624336213 -0.0028380504809 -0.012669594027 0.011349314824
          -0.015227590688 0.0038572943304 0.0078113386407 0.0094433920458 -0.0017413597088 -0.0092100827023
          -0.021374123171 0.044051971287 -0.023092627525 -0.022666748613 0.0071481955238 0.00085436459631
          -0.018810959533 0.019100258127 -0.0090607125312 0.017945680767 -0.017780918628 0.017230534926
          0.010865603574 0.050761353225 -0.00026222071028 -0.024109151214 0.014315021224 0.022121720016
          -0.015658287331 -0.0092258583754 0.0085700778291 -0.0088343834504 0.00075326615479 0.013664877973
          -0.0090787457302 0.0047686435282 -0.0028305461165 -0.0067540095188 0.01808144711 0.032113008201
          -0.005140426103 0.005211555399 0.012623702176 -0.015049124137 -0.0059836101718 0.020070122555
          0.0072450679727 -0.014265781268 0.029107302427 0.0043703988194 -0.014126036316 -0.01025235001
          -0.0027055751998 -0.0091101536527 -0.0091286422685 -0.0064737652428 -0.0041075926274 0.0090664178133
          -0.019560897723 0.0013390778331 0.0019867504016 0.025757115334 0.027265824378 0.0035359561443
          0.0082089835778 -0.014071376994 -0.012466255575 0.00065230717883 -0.012061070651 0.0015041851439
          -0.017081571743 -0.027681626379 0.01087424159 0.0042633083649 -0.027480537072 0.022760840133
          -0.0093716708943 0.013057195581 0.0049415724352 -0.01190782804 -0.044460199773 -0.010711391456
          -0.01370342169 -0.00086972018471 -0.013079527766 0.011817961931 0.0060027977452 -0.04346325621
          0.015383899212 0.038164328784 -0.016480339691 0.012413863093 0.0038579087704 -0.020384073257
          0.010699126869 0.032498627901 -0.03654287383 0.013948895037 -0.024630924687 -0.0057443957776
          -0.019125567749 0.036855582148 0.0042632217519 -0.032800495625 0.019560270011 -0.016190065071
          0.013952753507 -0.017374454066 0.0032320385799 0.011696022004 0.01683767885 0.0029525521677
          0.010544030927 -0.017353983596 -0.006892550271 -0.011081201956 -0.027023632079 0.016588866711
          0.022838929668 -0.0079353163019 0.017516264692 -0.017942005768 0.039913520217 -0.037240650505
          0.008115215227 0.031072448939 -0.0016500740312 0.0096447113901 0.0275149066 -0.013184349053
          0.011334195733 -0.011102240533 -0.010070118122 0.03381319344 0.016018616036 -0.010306525975
          0.0063776532188 0.013936107978 -0.011120595969 -0.021607758477 0.0078981490806 0.05153080821
          -0.010983982123 -0.046563286334 0.017240680754 -0.022388478741 0.011519907042 -0.020373426378
          -0.0062664728612 0.019364992157 -0.0032857859042 0.0019633511547 -0.0033218367025 0.011552742682
          -0.024831702933 -0.0069676414132 0.0083299614489 0.0077000861056 -0.0022995204199 -0.030904235318
          0.0058336840011 0.0081190103665 -0.0016364293406 -0.0077197346836 -0.0052599618211 -0.0046594562009
          0.019679758698 0.014402053319 0.0095542902127 -0.013026737608 0.0045968885534 -0.032804735005
          -0.0052625047974 -0.013616639189 -0.014016204514 0.011987898499 -0.016579195857 -0.0014792606235
          -0.0095556247979 -0.005133997649 -0.016149153933 0.0024683093652 0.0008648437215 -0.032211758196
          -0.0095884827897 -0.031762827188 0.0026154918596 -0.018032018095 -0.013272253796 -0.03012493439
          -0.030619904399 0.025996107608 -0.0080905687064 -0.0070275943726 -0.0049517671578 -0.0024630995467
          0.02445778437 -0.015546404757 0.03004908748 0.0062094964087 -0.0031701934058 -0.026532297954
          -0.0021223200019 0.024111267179 0.0081661073491 -0.010634079576 -0.094657972455 -0.017748143524
          0.1889514178 -0.010801847093 -0.15097996593 0.085197940469 0.05979731679 -0.025345735252
          0.0063400538638 -0.0099359331653 0.0021830322221 -0.0090579222888 -0.022491550073 -0.038921222091
          -0.0068302629516 0.074826829135 0.025212382898 -0.052303634584 -0.0068473243155 -0.01401151903
          0.075176551938 0.0011107767932 0.0044633275829 0.0023793380242 0.024709487334 0.00055277493084
          0.027859626338 -0.0046805823222 -0.031042378396 0.013259190135 -0.0030496756081 -0.068567581475
          -0.077849648893 0.062503896654 0.0005667663645 -0.035365119576 0.033791087568 -0.00018508840003
          0.025842256844 -0.020256357267 -0.025543188676 -0.022295163944 -0.018313899636 -0.043388664722
          -0.029385386035 -0.083090722561 0.03868348524 -0.025578670204 0 0
          0 0 0 0 0 0
          0 0 0 0 0
        </DataArray>
        <DataArray type="Float32" Name="uz" format="ascii" RangeMin="-0.080370903015" RangeMax="0.045180696994">
          0.024599917233 -0.037442330271 -0.012345850468 0.0010210850742 0.0048897005618 -0.010666121729
          0.0020634843968 -0.0031584254466 -0.01272062026 0.014904920012 0.015543878078 0.0018022004515
          0.006628585048 0.0022988801356 0.005668357946 0.014762891456 -0.0082650529221 0.004247599747
          -0.0051538958214 -0.00092295149807 -0.0066817309707 -0.015280531719 -0.0043559828773 -0.0034179054201
          -0.0031929835677 0.010178380646 0.01443486847 -0.014983515255 -0.010105176829 -0.0062989871949
          -0.024363478646 -0.034333277494 0.0045767007396 -0.00091842992697 -0.0047481893562 -0.0028317265678
          -0.016371725127 0.045180696994 0.014807732776 0.017653968185 0.019058581442 -0.0092591801658
          0.0081666484475 0.018781669438 -0.0067887110636 0.010098229162 0.0070685981773 0.036033120006
          0.010572646745 0.0028923256323 0.0035622161813 0.033049639314 0.018706604838 0.01671157591
          0.019310355186 0.010248837993 0.00094711419661 -0.0039837956429 -0.0011383772362 -0.013850874268
          -0.0049610035494 -0.0010425661458 -0.0086950678378 -0.0040593785234 0.040115009993 0.0093154264614
          0.014423063956 0.021047662944 -0.0066262050532 0.021152317524 -0.0036799425725 0.023952657357
          0.0017659267178 -0.0028165827971 -0.00030878087273 -0.014515026473 -0.015997838229 -0.007887144573
          -0.037420392036 -0.0062620197423 -0.0039741033688 -0.015329240821 -0.026946686208 0.0031897358131
          -0.033464770764 -0.018657809123 -0.007524583023 0.0076129045337 -0.011716729961 -0.018700020388
          -0.0045396462083 -0.020459253341 -0.028070207685 -0.015104644001 -0.033045839518 -0.0072836945765
          -0.015581289306 -0.0098541779444 -0.016469944268 -0.004210324958 -0.011953566223 -0.018616892397
          -0.0070190774277 -0.0013802531175 -0.015195318498 -0.018199414015 -0.0086507387459 -0.012316103093