<VTKFile type="UnstructuredGrid" version="1.0" byte_order="LittleEndian" header_type="UInt64">
  <UnstructuredGrid>
    <Piece NumberOfPoints="791" NumberOfCells="973">
      <PointData>
        <DataArray type="Float32" Name="ux" format="ascii" RangeMin="-0.85546171665" RangeMax="0.95885533094">
          -0.18051604927 -0.13764615357 -0.22778436542 -0.18894311786 -0.18871225417 -0.2322191745
          -0.14258915186 -0.09578128159 -0.027353696525 -0.033702768385 -0.083389393985 -0.029255710542
          -0.10481997579 -0.036716885865 -0.28525140882 -0.25277245045 -0.29524469376 -0.25559085608
          -0.11214768142 -0.023526221514 -0.10801656544 -0.042350903153 -0.032407667488 -0.32931414247
          -0.28918755054 -0.32427740097 -0.13330039382 -0.096672132611 -0.047280654311 -0.029308535159
          -0.17624273896 -0.11100599915 -0.088293239474 -0.10686334223 -0.18999606371 -0.1503610462
          -0.24838851392 -0.051108565181 0.012259215117 -0.014116661623 -0.11287363619 -0.023043202236
          -0.0641291067 -0.038517065346 -0.092034183443 -0.064486779273 -0.13381290436 -0.1059807688
          -0.18946538866 0.035529248416 0.0063887024298 -0.098673582077 -0.17506912351 -0.14747816324
          -0.24404264987 -0.1692673862 -0.27329868078 0.020192986354 -0.018949709833 -0.038639523089
          -0.011575805955 -0.0024426926393 -0.04113792628 -0.064171262085 -0.01478428673 0.013694676571
          0.0039285435341 -0.0099717322737 -0.020281003788 -0.040732402354 0.027151852846 -0.037029575557
          -0.058757685125 -0.070976115763 0.021778445691 -0.00045854563359 0.0013272493379 0.003561302321
          -0.00079240009654 -0.0022050710395 -0.0026521955151 -0.0030746168923 -0.00030689121922 -0.0053162616678
          -0.00071696931263 -0.00085239467444 -8.0898083979e-05 -0.0019582617097 0.0009893925162 -0.0012489979854
          0.0036984158214 0.039925012738 0.0072751031257 -0.0021487241611 0.04548792541 0.074629403651
          0.0068969479762 -0.042280163616 -0.018141835928 -0.0048771700822 0.01758146286 0.04640833661
          -0.054154645652 0.040565814823 0.075660511851 0.087901629508 -0.038377352059 0.09152007848
          0.010416813195 -0.01450401824 0.10688846558 0.17697988451 0.0096174832433 -0.10816195607
          -0.050844274461 -0.018310682848 0.036661140621 0.10742170364 -0.13957475126 0.090701632202
          0.17718482018 0.20992402732 -0.10261832178 0.16523087025 0.048037398607 0.0098777255043
          0.18866568804 0.28999435902 0.04529998824 -0.12088896334 -0.041221648455 0.0057278419845
          0.086537189782 0.18795639277 -0.16738307476 0.16409382224 0.2910464406 0.33939537406
          -0.1176667586 0.2146460861 0.08636521548 0.043242942542 0.24340744317 0.35597270727
          0.088223852217 -0.093587942421 -0.0080111986026 0.044534936547 0.13069349527 0.24436683953
          -0.14605891705 0.21808849275 0.35866907239 0.41068869829 -0.094381801784 0.24338904023
          0.10857444257 0.061867829412 0.27326631546 0.3906801641 0.11112365872 -0.079815641046
          0.008894238621 0.067050658166 0.15561062098 0.27371323109 -0.13835370541 0.24558608234
          0.39162433147 0.4476056993 -0.085156619549 0.237752527 0.10261251032 0.054745350033
          0.26695844531 0.38508492708 0.1072576195 -0.081614077091 0.0040475977585 0.063564382493
          0.15045559406 0.26723203063 -0.14123901725 0.24044398963 0.38370972872 0.43975520134
          -0.090012721717 0.23338405788 0.10912130028 0.065187461674 0.25949248672 0.36902630329
          0.11417647451 -0.054495856166 0.020675392821 0.076741121709 0.15231151879 0.2588519156
          -0.10946560651 0.23395708203 0.36293387413 0.41712486744 -0.066313505173 0.22653776407
          0.12380445749 0.084475435317 0.24963028729 0.34163734317 0.1290255338 -0.0084952926263
          0.052537173033 0.097747035325 0.16095256805 0.24905860424 -0.055754564703 0.22565309703
          0.3339048326 0.38031837344 -0.022453457117 0.14249396324 0.064280599356 0.031024161726
          0.16349747777 0.23437847197 0.071980275214 -0.034895893186 0.010802213103 0.049400236458
          0.095139324665 0.16421282291 -0.072558946908 0.14797398448 0.2305124402 0.26638153195
          -0.050025597215 -0.0094257201999 -0.070967957377 -0.094461478293 0.0039208107628 0.057895839214
          -0.067014321685 -0.14776198566 -0.11344432086 -0.083881177008 -0.049162384123 0.0031596431509
          -0.17737163603 -0.0089518753812 0.05320032686 0.080581642687 -0.1593067646 -0.16065208614
          -0.21976651251 -0.23961049318 -0.15019886196 -0.099077217281 -0.21546554565 -0.29455712438
          -0.26124578714 -0.22940889001 -0.19950072467 -0.1484657228 -0.32385694981 -0.15580418706
          -0.099428035319 -0.078322269022 -0.30329370499 -0.24670611322 -0.30885568261 -0.32918646932
          -0.23563103378 -0.18502341211 -0.30371391773 -0.39183607697 -0.35382762551 -0.31920647621
          -0.28766402602 -0.23290573061 -0.42236888409 -0.23737223446 -0.17838782072 -0.15949815512
          -0.39708578587 -0.21375733614 -0.27244895697 -0.28874471784 -0.20546193421 -0.15774005651
          -0.26913610101 -0.3501290977 -0.31457000971 -0.28275161982 -0.25261577964 -0.20397979021
          -0.37835645676 -0.2093320787 -0.15727029741 -0.1372705251 -0.35357064009 -0.07291752845
          -0.11977874488 -0.13153997064 -0.068008281291 -0.029478598386 -0.12120529264 -0.18541882932
          -0.15497639775 -0.13294072449 -0.10716211051 -0.067483603954 -0.20448841155 -0.073535218835
          -0.028177615255 -0.012554622255 -0.18425533175 0.15344645083 0.11835155636 0.10816124082
          0.16038422287 0.19002901018 0.11933519691 0.069900475442 0.092449709773 0.10926083475
          0.12914080918 0.16073781252 0.054702445865 0.15626707673 0.19204191864 0.20353978872
          0.069843828678 0.42776232958 0.39195922017 0.38180845976 0.43471261859 0.46470567584
          0.39503777027 0.34519737959 0.36810714006 0.3842266798 0.40554347634 0.43659365177
          0.33141541481 0.43070784211 0.46637424827 0.4789378047 0.34501108527 -0.24840469658
          -0.1749573946 -0.15733009577 -0.25460657477 -0.31802588701 -0.16545550525 -0.070301927626
          -0.12029455602 -0.1370369643 -0.19259253144 -0.24828545749 -0.048472620547 -0.22576527297
          -0.30277848244 -0.33863851428 -0.081122383475 -0.17213454843 -0.07939619571 -0.16157647967
          -0.18108959496 -0.24800178409 -0.25096923113 -0.31596648693 -0.27915725112 -0.25527632236
          -0.24761268497 -0.18625821173 -0.18487931788 -0.18066672981 -0.28542864323 -0.19291451573
          -0.3077057004 -0.1979893595 -0.25266075134 -0.21387788653 -0.23625272512 -0.18599046767
          -0.17757348716 -0.1828071475 -0.23840847611 -0.18037140369 -0.26338800788 -0.18792851269
          -0.28572916985 -0.1939766407 -0.21009318531 -0.17800231278 -0.27614474297 -0.19059999287
          -0.30862119794 -0.20196917653 -0.32010355592 -0.20551612973 -0.22182974219 -0.17875483632
          -0.018744040281 -0.043524149805 -0.048781961203 -0.015660861507 0.0046502510086 -0.043746951967
          -0.077685974538 -0.061267502606 -0.050057470798 -0.036283627152 -0.016623659059 -0.087098531425
          -0.020658839494 0.003467068309 0.012583386153 -0.075675323606 0.18668359518 0.1276910305
          0.10940086097 0.19818790257 0.25048950315 0.12704701722 0.046151943505 0.085052609444
          0.10555050522 0.14637510478 0.19633162022 0.023502554744 0.18188853562 0.24658480287
          0.27438923717 0.048151999712 0.36517933011 0.27736181021 0.24508948624 0.38680979609
          0.4645678103 0.27349171042 0.14534403384 0.20839580894 0.23858587444 0.30648386478
          0.38503700495 0.11140730232 0.36178037524 0.46555811167 0.50375908613 0.14896841347
          0.45531988144 0.33450007439 0.29034492373 0.48624616861 0.59416466951 0.33283385634
          0.15313734114 0.24124518037 0.28665784001 0.37692055106 0.48755562305 0.10681643337
          0.45739752054 0.59793710709 0.64932888746 0.15894006193 0.45574110746 0.29679349065
          0.24096094072 0.49336880445 0.63437175751 0.29482924938 0.065824449062 0.17636947334
          0.23588238657 0.35108968616 0.4933257997 0.0035285900813 0.45649334788 0.63810539246
          0.70583844185 0.070036888123 0.35360553861 0.16093498468 0.096099898219 0.39499437809
          0.56524944305 0.15821258724 -0.11727236211 0.014633026905 0.090777203441 0.225229159
          0.39605024457 -0.19388788939 0.35411596298 0.56923365593 0.64908456802 -0.11182378232
          0.19787356257 -0.015436090529 -0.082952134311 0.23877491057 0.42224141955 -0.018336253241
          -0.32157495618 -0.1761008054 -0.089283175766 0.053652428091 0.23952482641 -0.40710416436
          0.1972065568 0.42504927516 0.50986593962 -0.31432080269 0.10259594768 -0.13049815595
          -0.20254188776 0.14437280595 0.34504124522 -0.13165387511 -0.45690199733 -0.30323722959
          -0.20672252774 -0.055377878249 0.14382104576 -0.5515640974 0.097949057817 0.34147527814
          0.43505761027 -0.45345714688 0.10826783627 -0.15317316353 -0.23731666803 0.15632088482
          0.3816435039 -0.15743598342 -0.52128553391 -0.34799158573 -0.24267548323 -0.069581575692
          0.15244668722 -0.62806272507 0.096348963678 0.37094584107 0.48028609157 -0.52051514387
          0.14117877185 -0.15015591681 -0.24594736099 0.1971025914 0.45268455148 -0.15466840565
          -0.55895572901 -0.36651003361 -0.2524087429 -0.056711383164 0.19309955835 -0.67700719833
          0.12792795897 0.44073954225 0.56571608782 -0.55920803547 0.14138925076 -0.17410230637
          -0.27652263641 0.20271725953 0.47847607732 -0.17540682852 -0.61032468081 -0.40472590923
          -0.27845785022 -0.070627294481 0.19952437282 -0.73804044724 0.13308648765 0.46933308244
          0.60389614105 -0.612606287 0.10823386163 -0.21853506565 -0.32574787736 0.17226153612
          0.45754057169 -0.22160902619 -0.6761443615 -0.46102756262 -0.32884055376 -0.11215771735
          0.16854611039 -0.81041300297 0.098341152072 0.44828498363 0.58570677042 -0.67746216059
          0.09284940362 -0.24532049894 -0.35668805242 0.15799814463 0.4520418644 -0.24558144808
          -0.71485489607 -0.49549937248 -0.35522317886 -0.13466176391 0.15632212162 -0.85546171665
          0.087345398962 0.44554108381 0.58540189266 -0.71867805719 0.11479403824 -0.22469654679
          -0.33624359965 0.18120895326 0.47611686587 -0.22522225976 -0.70035117865 -0.47688010335
          -0.3356847167 -0.11299970746 0.17934063077 -0.84137392044 0.11098033935 0.47207376361
          0.6123688817 -0.70273554325 0.16969279945 -0.17652213573 -0.28930035233 0.23722516
          0.53821647167 -0.17802248895 -0.66258531809 -0.43348518014 -0.29273480177 -0.062607944012
          0.23550859094 -0.80431413651 0.16340443492 0.53384405375 0.67580962181 -0.66221654415
          0.24583075941 -0.10748963803 -0.22404716909 0.31677860022 0.62428665161 -0.10897836834
          -0.60674953461 -0.37165036798 -0.22701661289 0.0082111274824 0.31534585357 -0.75170987844
          0.241601035 0.62100577354 0.76730912924 -0.60609906912 0.32943353057 -0.035228557885
          -0.15651769936 0.40362295508 0.72155821323 -0.036925807595 -0.55180805922 -0.30834779143
          -0.15959574282 0.085133269429 0.40220662951 -0.70120382309 0.32639741898 0.7206299901
          0.87082993984 -0.5497931838 0.41245368123 0.045879933983 -0.076363697648 0.48767021298
          0.80835181475 0.04400356859 -0.4736379385 -0.22864566743 -0.078852564096 0.166780442
          0.48716059327 -0.6236358285 0.41019490361 0.80693125725 0.95885533094 -0.47175627947
          -0.24501907825 -0.20879258215 -0.18535456061 -0.26737529039 -0.3020067811 -0.22648052871
          -0.16362246871 -0.18452095985 -0.21754845977 -0.23240640759 -0.27752041817 -0.13673207164
          -0.27817392349 -0.32264363766 -0.33233547211 -0.14439232647 -0.18159320951 -0.098555549979
          -0.18282242119 -0.18240453303 -0.25157627463 -0.26529321074 -0.31964761019 0.097112216055
          0.13135956228 0.099989689887 0.011426826939 0.025259008631 0.010534492321 -0.04132584855
          -0.096915923059 -0.10681118816 -0.18155944347 -0.1772659868 -0.21092227101 -0.094174899161
          0.12483314425 0.15755727887 0.13079214096 0.046978257596 0.061135657132 0.046465978026
          -0.00070002226857 -0.056562803686 -0.062345836312 -0.13441726565 -0.12543222308 -0.15806593001
          -0.049071408808 0.064104102552 0.089002862573 0.069068618119 0.0082583529875 0.017211129889
          0.0084818899632 -0.028166864067 -0.068513311446 -0.073986589909 -0.12956219912 -0.12037754059
          -0.14767169952 -0.061296511441 0.010891580954 0.032324094325 0.015507876873 -0.035844661295
          -0.030570505187 -0.036652404815 -0.069398231804 -0.10053317249 -0.10660525411 -0.15030673146
          -0.14307262003 -0.16562180221 -0.094526104629 0.018720958382 0.028590656817 0.011386111379
          -0.021099591628 -0.014302652329 -0.018632149324 -0.041136913002 -0.058439251035 -0.065940618515
          -0.088108994067 -0.095664568245 -0.1036496684 -0.063657075167 -4.9356752019e-10 5.2090034508e-09
          -8.0045298168e-10 2.9938808377e-11 1.7256823748e-10 4.9831083704e-11 -5.4991105419e-11 4.9647044288e-12
          4.1074650327e-14 0 0 0 6.9581422872e-13
        </DataArray>
        <DataArray type="Float32" Name="uy" format="ascii" RangeMin="-1.3479371071" RangeMax="1.5101411343">
          0.09902369231 0.036098338664 0.0099614784122 -0.019675282761 -0.1607132107 -0.21171613038
          -0.19888587296 0.10107687861 0.049745865166 0.043450392783 -0.017912674695 -0.19032302499
          -0.15925654769 -0.11674883962 0.051385372877 0.04020428285 -0.19179844856 -0.11953902245
          -0.030497673899 -0.063000999391 -0.23226691782 -0.029567206278 -0.23294137418 -0.2295846194
          -0.066446639597 -0.02921830304 -0.012143559754 -0.98236721754 -0.93219691515 -0.98068320751
          -0.95002990961 -0.88047426939 -0.9500310421 -0.91367399693 -0.85332244635 -0.94308596849
          -0.89528048038 -0.83509463072 -0.8210837841 -0.88255649805 -0.74421674013 -0.72669202089
          -0.81105321646 -0.78726017475 -0.67790603638 -0.88362967968 -0.8121881485 -0.85297489166
          -0.76892721653 -0.87970334291 -0.80930101871 -0.78751069307 -0.67835384607 -0.82087343931
          -0.7264700532 -0.87920331955 -0.80890536308 -0.9398816824 -0.89544671774 -0.92422604561
          -0.89936482906 -0.92252534628 -0.89049440622 -0.90327465534 -0.85573101044 -0.84789592028
          -0.87567156553 -0.83426868916 -0.87740844488 -0.86341285706 -0.87274044752 -0.83460712433
          -0.8486533165 -0.87438172102 -0.90144658089 -0.77064985037 -0.77027499676 -0.77075368166
          -0.76857578754 -0.76783668995 -0.77030193806 -0.76951789856 -0.77026516199 -0.77095037699
          -0.76893091202 -0.76888978481 -0.76936876774 -0.77102708817 -0.76779854298 -0.76559644938
          -0.76874268055 -0.54911476374 -0.58195126057 -0.54766702652 -0.5957351923 -0.5751286149
          -0.65068536997 -0.65626460314 -0.61475098133 -0.68509638309 -0.61647313833 -0.63843691349
          -0.61239600182 -0.68474733829 -0.65902340412 -0.61642813683 -0.57075095177 -0.25899603963
          -0.33905574679 -0.25574755669 -0.37297967076 -0.32240253687 -0.50572657585 -0.52256339788
          -0.41957560182 -0.58917593956 -0.42290192842 -0.47540259361 -0.41629844904 -0.58987689018
          -0.52641576529 -0.4242349267 -0.3156760931 0.050235699862 -0.070922255516 0.050131052732
          -0.11570509523 -0.040484901518 -0.31144794822 -0.33845770359 -0.1908763051 -0.43155688047
          -0.19107499719 -0.26492449641 -0.18988206983 -0.43171006441 -0.33896753192 -0.1882430017
          -0.041216675192 0.35211724043 0.21779887378 0.3497376442 0.16813720763 0.25247973204
          -0.046744994819 -0.076793141663 0.08476215601 -0.17909239233 0.085260853171 0.0040407539345
          0.085132047534 -0.17901536822 -0.077770039439 0.087353363633 0.24774855375 0.67203360796
          0.53107714653 0.67067027092 0.47926607728 0.56622451544 0.25231486559 0.21671971679
          0.39045807719 0.11315018684 0.39163133502 0.30656552315 0.38808503747 0.11420489103
          0.2218311131 0.39390841126 0.562050879 0.94577205181 0.80676019192 0.94513261318
          0.75346750021 0.83777010441 0.53077059984 0.49411940575 0.66734653711 0.392714113
          0.66838675737 0.58330100775 0.66414195299 0.39437356591 0.49824538827 0.66620582342
          0.83661961555 1.1237492561 0.99382311106 1.1207531691 0.94620132446 1.0246020555
          0.7429612875 0.70897835493 0.86548781395 0.61949402094 0.8681063652 0.79061990976
          0.86046862602 0.61999684572 0.71125662327 0.8652138114 1.0179020166 1.1687092781
          1.0597263575 1.1644511223 1.0213083029 1.0860296488 0.85366070271 0.82504910231
          0.95301294327 0.75266593695 0.95604521036 0.8922867775 0.94744080305 0.75273710489
          0.82741528749 0.95383799076 1.0758721828 1.071872592 0.98620718718 1.0663797855
          0.95679491758 1.0068305731 0.82762700319 0.80576205254 0.90488243103 0.75049710274
          0.90641140938 0.85719937086 0.89825350046 0.74937206507 0.80537581444 0.90310722589
          0.99742203951 0.85808801651 0.79295933247 0.85482627153 0.77104538679 0.80895608664
          0.67155879736 0.65277653933 0.72942954302 0.61199784279 0.73210632801 0.69569128752
          0.72387474775 0.61326873302 0.65785688162 0.73215538263 0.8024302721 0.58019369841
          0.52014565468 0.58154714108 0.49817234278 0.53342914581 0.40228593349 0.38336268067
          0.45935788751 0.34348037839 0.46092692018 0.4267963171 0.45451164246 0.34868264198
          0.392978549 0.4619064033 0.53199124336 0.2581589222 0.19926510751 0.26087549329
          0.17376306653 0.21029032767 0.072462245822 0.050826817751 0.1349145174 0.0065493914299
          0.13658353686 0.099883332849 0.13207271695 0.013391915709 0.065368011594 0.13698345423
          0.21301971376 -0.10243713856 -0.15700207651 -0.097096376121 -0.18121130764 -0.14871552587
          -0.27284991741 -0.29132667184 -0.21500593424 -0.33191895485 -0.21490637958 -0.24927338958
          -0.21588596702 -0.32578966022 -0.28062978387 -0.21569488943 -0.13975934684 -0.48612034321
          -0.52934730053 -0.48284864426 -0.5468184948 -0.5199843049 -0.62237077951 -0.63701957464
          -0.5769072175 -0.67049473524 -0.57574522495 -0.60216289759 -0.57757103443 -0.66586250067
          -0.62825781107 -0.57328784466 -0.51789706945 -0.86517715454 -0.89985823631 -0.86543178558
          -0.91281229258 -0.89078974724 -0.96975922585 -0.97931838036 -0.93483906984 -1.0066479445
          -0.93409478664 -0.95550686121 -0.93507295847 -1.0039191246 -0.97578257322 -0.93317228556
          -0.89180344343 -1.2139222622 -1.247410059 -1.2133635283 -1.2611918449 -1.2401093245
          -1.3137049675 -1.3209414482 -1.2799191475 -1.3475546837 -1.2804373503 -1.301966548
          -1.2790497541 -1.3479371071 -1.3221043348 -1.2814902067 -1.2394968271 -0.64787852764
          -0.61621296406 -0.64744764566 -0.60285806656 -0.62269759178 -0.55564725399 -0.5500998497
          -0.58602899313 -0.52632373571 -0.58501213789 -0.56454950571 -0.58578532934 -0.5223954916
          -0.54227745533 -0.58092439175 -0.62249547243 -0.2638592422 -0.27425402403 -0.2966273725
          -0.23228277266 -0.24993410707 -0.29178693891 -0.26787093282 0.17167004943 0.14716760814
          0.16989843547 0.19621931016 0.18621636927 0.19168670475 0.13698266447 0.18462480605
          0.15401160717 0.1930000782 0.095566146076 0.095061890781 0.12369962037 0.17093813419
          0.17250706255 0.17846222222 0.069832257926 0.1647632122 0.12134625018 0.17849691212
          0.10408839583 0.17216344178 0.12581719458 0.17922897637 0.064552485943 0.16125763953
          0.085053101182 0.16559189558 0.12184728682 0.17867563665 0.15277892351 0.18593798578
          0.20528896153 0.22741550207 0.20191660523 0.23984561861 0.22593082488 0.2762799561
          0.28160223365 0.25083786249 0.30091521144 0.25222083926 0.27007317543 0.24892324209
          0.30095905066 0.28369113803 0.25617823005 0.21842958033 0.19611735642 0.2576700151
          0.19642300904 0.28129351139 0.24297742546 0.37780541182 0.38716113567 0.31662666798
          0.435472399 0.31830504537 0.35835161805 0.31341332197 0.44010993838 0.3974738121
          0.32077890635 0.24172857404 0.18592374027 0.2804095149 0.18813030422 0.3142144978
          0.25429496169 0.46533796191 0.48324257135 0.37267270684 0.55694687366 0.37280917168
          0.43022397161 0.37165868282 0.56062424183 0.48916006088 0.3706125021 0.25957334042
          0.13942468166 0.26973155141 0.14374691248 0.31674665213 0.23457330465 0.52505230904
          0.55091625452 0.39543816447 0.65402323008 0.3972029686 0.47665432096 0.39414325356
          0.65711575747 0.55701506138 0.39394918084 0.23963777721 0.014183243737 0.18339028955
          0.018454164267 0.24432511628 0.13744145632 0.51579123735 0.55058890581 0.34965875745
          0.68149477243 0.34899401665 0.45229437947 0.34728890657 0.68577516079 0.55652087927
          0.34528502822 0.14553970098 -0.16220535338 0.038608290255 -0.15936492383 0.11303264648
          -0.012404183857 0.43939483166 0.48418554664 0.23801846802 0.64126098156 0.23771713674
          0.36286476254 0.23538005352 0.64391994476 0.48799929023 0.23501117527 -0.0094146160409
          -0.33925426006 -0.12531802058 -0.34261196852 -0.040941238403 -0.17285656929 0.30999529362
          0.36028656363 0.090771466494 0.5301591754 0.092009782791 0.22646397352 0.087946742773
          0.52867251635 0.36015343666 0.092088647187 -0.18050682545 -0.58311647177 -0.35317468643
          -0.58913302422 -0.26022320986 -0.40152576566 0.11580617726 0.17234450579 -0.12030818313
          0.35198542476 -0.11808817834 0.027271704748 -0.1222795099 0.34971013665 0.17071011662
          -0.11462976784 -0.41338261962 -0.85551381111 -0.59543466568 -0.86085897684 -0.49148654938
          -0.64889478683 -0.07051550597 -0.006389528513 -0.33267140388 0.19231453538 -0.33224382997
          -0.16919894516 -0.33221313357 0.1913099438 -0.0065888017416 -0.32550606132 -0.65960639715
          -1.0617963076 -0.76629501581 -1.0628869534 -0.65067011118 -0.83132708073 -0.17415055633
          -0.10453255475 -0.46942546964 0.11921487004 -0.46888011694 -0.28467792273 -0.46759006381
          0.12247046083 -0.097218342125 -0.46181967854 -0.83404576778 -1.1656565666 -0.8450551033
          -1.1650005579 -0.72135335207 -0.91786956787 -0.20720221102 -0.13431222737 -0.52543741465
          0.10875596851 -0.52579694986 -0.32516986132 -0.52493917942 0.11334180832 -0.12355927378
          -0.51845932007 -0.91796010733 -1.1554955244 -0.82463347912 -1.1572474241 -0.69713383913
          -0.89862775803 -0.16076795757 -0.079470530152 -0.49214363098 0.17163023353 -0.4919706285
          -0.28677809238 -0.48932766914 0.17148281634 -0.079358398914 -0.48730751872 -0.90145748854
          -1.0656014681 -0.72434210777 -1.0675573349 -0.59137183428 -0.80019438267 -0.041430879384
          0.04121516645 -0.38292041421 0.30035075545 -0.38215124607 -0.17009229958 -0.38102725148
          0.30028375983 0.041641552001 -0.37805846334 -0.80571836233 -0.89335113764 -0.54818183184
          -0.8958016634 -0.41460824013 -0.62623542547 0.14418365061 0.22698788345 -0.20107781887
          0.48932927847 -0.20178696513 0.01272288803 -0.20021878183 0.48803475499 0.22586128116
          -0.19886922836 -0.63099586964 -0.69414114952 -0.34280529618 -0.69590383768 -0.20728853345
          -0.42306011915 0.36143654585 0.44476771355 0.010222854093 0.71259272099 0.0094718215987
          0.22689723969 0.010178294964 0.71253275871 0.44476360083 0.011339838617 -0.42670866847
          -0.46926870942 -0.10873031616 -0.47149217129 0.030342590064 -0.19186350703 0.61322885752
          0.69776523113 0.25199297071 0.97289574146 0.25282078981 0.47559320927 0.25180739164
          0.97351312637 0.69960272312 0.25494197011 -0.19575041533 -0.235555619 0.1364967525
          -0.23685106635 0.27986839414 0.050331629813 0.88351219893 0.97199684381 0.50955969095
          1.2577118874 0.51009273529 0.74120301008 0.50879186392 1.2575623989 0.97192120552
          0.51079463959 0.047104455531 0.0037217203062 0.3804641664 0.0033269319683 0.52425116301
          0.2916687429 1.1334108114 1.2215304375 0.75653469563 1.5096049309 0.75665295124
          0.98928833008 0.7559133172 1.5101411343 1.2227725983 0.75639843941 0.29044803977
          0.17791698873 0.13345773518 0.17501187325 0.11648826301 0.14579729736 0.041988413781
          0.034957304597 0.089690737426 -0.0032776740845 0.088305436075 0.057969383895 0.09107349813
          -0.0069114868529 0.028747059405 0.087783403695 0.14383801818 -0.089527748525 -0.1052942723
          -0.14696148038 -0.029192451388 -0.068142674863 -0.14741373062 -0.10511218756 0.088313557208
          0.19143936038 0.29363450408 0.35667401552 0.19086705148 0.027992986143 0.19030310214
          0.35354551673 0.18953984976 0.28684669733 0.088885143399 0.18731963634 0.028690436855
          0.22088705003 0.31202024221 0.40691626072 0.46777927876 0.31569427252 0.16884127259
          0.31651985645 0.46701341867 0.31618025899 0.40619394183 0.2259375006 0.31421843171
          0.17102660239 0.28731119633 0.35742878914 0.42768222094 0.47567990422 0.35989496112
          0.24808996916 0.35989615321 0.47521901131 0.35841518641 0.42628625035 0.28433856368
          0.35255849361 0.24586847425 0.21357023716 0.26990225911 0.33011430502 0.36867925525
          0.27210581303 0.17817516625 0.27178508043 0.36789399385 0.27068945765 0.32869613171
          0.21001647413 0.26774767041 0.17773365974 0.06600818783 0.10715030879 0.14575152099
          0.16435548663 0.10272114724 0.038017425686 0.10155936331 0.16280463338 0.10329501331
          0.14283031225 0.06916680932 0.10909325629 0.040510162711 1.2172438058e-10 -1.7451193268e-11
          -9.0570426159e-11 6.2493496489e-11 -2.9552584338e-12 -7.048287648e-11 -5.0144491424e-13 1.904952758e-12
          -4.7241816578e-13 0 0 0 1.912035634e-12
        </DataArray>
        <DataArray type="Float32" Name="uz" format="ascii" RangeMin="-0.24363034964" RangeMax="0.39448207617">
          -0.097093231976 -0.049292627722 -0.102492176 -0.060475930572 -0.011825108901 -0.030382597819
          0.028877437115 -0.039871390909 0.024339139462 0.024484738708 0.010110447183 0.1067161113
          0.045476097614 0.076829276979 -0.15695302188 -0.12679095566 -0.077562980354 -0.074205212295
          -0.010041585192 0.069216489792 0.059218898416 0.040782738477 0.11369939893 -0.094545215368
          -0.11887528747 -0.15944585204 -0.025319932029 -0.032516889274 -0.0091812554747 -0.021507797763
          -0.041969690472 0.0031584145036 -0.0062909820117 -0.013710814528 -0.023371411487 -0.030487800017
          -0.058504670858 0.018800610676 0.036281086504 0.011907233857 0.032279312611 0.074607543647
          0.038449078798 0.036845348775 0.056853480637 0.0027098562568 0.0093605099246 0.0040446026251
          -0.0058409185149 0.022220596671 0.065942898393 0.02517173253 0.019454831257 0.005416653119
          -0.020174209028 -0.015691479668 -0.049405600876 -0.00037193114986 0.035235468298 -0.012822946534
          -0.019848998636 -0.033702488989 0.0030348359141 0.011672952212 -0.0022159970831 -0.021005570889
          -0.021117998287 0.00056157016661 -0.0054865400307 0.013812933117 -0.036751575768 0.021780069917
          0.032799802721 0.028599061072 -0.042608309537 0.0030211303383 -0.025877309963 -0.041729263961
          0.016521375626 0.044177606702 -0.015946092084 -0.062672674656 -0.045625891536 -0.021962709725
          -0.0099745094776 0.022236123681 -0.082428433001 0.023522555828 0.055499900132 0.063989005983
          -0.074130646884 0.0023046003189 -0.036431908607 -0.055624138564 0.018740879372 0.053663678467
          -0.023341445252 -0.087394163013 -0.064247786999 -0.032402791083 -0.015502044931 0.027548979968
          -0.11391626298 0.027891924605 0.069994784892 0.079677410424 -0.10051662475 -0.015174426138
          -0.059671249241 -0.088297940791 0.011554338969 0.053391687572 -0.036552537233 -0.11425534636
          -0.089955948293 -0.045808758587 -0.030054328963 0.026353133842 -0.14960609376 0.029612341896
          0.081582985818 0.090413764119 -0.1394507885 -0.02190563269 -0.075009062886 -0.11057110876
          0.010163189843 0.060209326446 -0.047029025853 -0.13629087806 -0.10991047323 -0.054880015552
          -0.03904709965 0.027237655595 -0.18025921285 0.033093933016 0.093800842762 0.10384985805
          -0.17101594806 -0.007198870182 -0.072278320789 -0.10656223446 0.022037420422 0.081964083016
          -0.051325142384 -0.15684781969 -0.11787381768 -0.066040091217 -0.036724418402 0.035813879222
          -0.20092111826 0.035369716585 0.10943996161 0.12644040585 -0.18072859943 0.01500215102
          -0.056167911738 -0.084682479501 0.035555306822 0.10004775971 -0.046604514122 -0.15392076969
          -0.10716237873 -0.069437123835 -0.026747137308 0.042306818068 -0.19009305537 0.032171502709
          0.11109028012 0.13684104383 -0.16254137456 0.028142519295 -0.03486981988 -0.055489674211
          0.0408192873 0.096266284585 -0.031640484929 -0.1207556352 -0.079851336777 -0.052971240133
          -0.012597147375 0.042977001518 -0.14729699492 0.031185474247 0.09781037271 0.1222795397
          -0.12239719182 0.02633321844 -0.0094517013058 -0.024305643514 0.036194309592 0.068537019193
          -0.0094557618722 -0.061524219811 -0.037050064653 -0.019853124395 0.003142306814 0.036074433476
          -0.078143507242 0.029735492542 0.070608384907 0.085454940796 -0.063569582999 0.041510690004
          0.030210018158 0.036039348692 0.032324597239 0.04122447595 0.012018447742 0.0029306211509
          0.017485685647 0.0040493160486 0.022937435657 0.022879226133 0.011937255971 0.011996591464