<VTKFile type="UnstructuredGrid" version="1.0" byte_order="LittleEndian" header_type="UInt64">
  <UnstructuredGrid>
    <Piece NumberOfPoints="791" NumberOfCells="973">
      <PointData>
        <DataArray type="Float32" Name="ux" format="ascii" RangeMin="-0.43751403689" RangeMax="0.49363070726">
          0.059644713998 0.027228210121 0.077307276428 0.063604667783 0.05843212828 0.076694823802
          0.026584876701 0.013138300739 -0.037537448108 -0.024491012096 0.0062750638463 -0.0386669375
          0.012028883211 -0.024927025661 0.11681326479 0.098006889224 0.11567732692 0.097356289625
          0.00074880104512 -0.038292337209 0.00093991152244 -0.042949289083 -0.042983211577 0.13204477727
          0.11562759429 0.13207381964 0.03436434269 0.13834927976 0.09217762202 0.076789401472
          0.11249201745 0.06775957346 0.05286462605 0.147531569 0.12150067091 0.18778946996
          0.1605656445 0.092308335006 0.028071636334 0.058093588799 0.067862801254 0.0053658112884
          0.034647941589 0.077316574752 0.053246863186 0.10747554898 0.082587867975 0.14725671709
          0.12128975242 0.0087534366176 -0.013362443075 0.13777816296 0.1120608896 0.18684500456
          0.15981504321 0.20612445474 0.17849853635 0.027218174189 0.0046688313596 0.16665002704
          0.11876598001 0.1028554067 0.17593835294 0.21763147414 0.11895252019 0.05277883634
          0.083591371775 0.10360845923 0.13455531001 0.17556592822 0.032567288727 0.16575594246
          0.21625842154 0.23627635837 0.051523700356 0.19918321073 0.14947912097 0.13296951354
          0.2087598294 0.25205233693 0.14966799319 0.081214383245 0.11305306852 0.13384945691
          0.16584128141 0.20826940238 0.060206502676 0.19804772735 0.25031208992 0.27123773098
          0.079702563584 0.23608876765 0.18485482037 0.16771443188 0.24605546892 0.29072615504
          0.18505834043 0.11450615525 0.14732433856 0.16866232455 0.20175902545 0.24552541971
          0.09284363687 0.23484513164 0.2888482511 0.3105096519 0.11287235469 0.27460163832
          0.22238473594 0.20478846133 0.28492289782 0.3305773139 0.22257427871 0.15056844056
          0.18411336839 0.20569555461 0.23967133462 0.28436499834 0.12860076129 0.2732860744
          0.32865670323 0.35088938475 0.14893709123 0.31122329831 0.25811740756 0.24011023343
          0.32187983394 0.36840206385 0.25828480721 0.18490333855 0.21915274858 0.24094775319
          0.27574819326 0.32132616639 0.16262598336 0.30991113186 0.36651623249 0.38920396566
          0.18333999813 0.34271764755 0.28879156709 0.27040114999 0.35375607014 0.40109360218
          0.2889816165 0.214184165 0.24916514754 0.27123591304 0.30681419373 0.35327011347
          0.19162210822 0.34157890081 0.39936745167 0.42252379656 0.21271859109 0.36647546291
          0.31168159842 0.29288715124 0.37786176801 0.42605978251 0.31184616685 0.23571430147
          0.27139052749 0.29362738132 0.33005172014 0.37738353014 0.21294352412 0.36533907056
          0.42439740896 0.44799268246 0.23437184095 0.37851518393 0.32305392623 0.30394461751
          0.39017921686 0.43902730942 0.32310691476 0.24590782821 0.28222936392 0.30448231101
          0.34166046977 0.3896741569 0.22302438319 0.37727826834 0.43738383055 0.46139672399
          0.24475641549 0.3748601079 0.31890770793 0.29956838489 0.3867084682 0.43609401584
          0.3189303875 0.24090519547 0.27765765786 0.30003875494 0.33771526814 0.38624310493
          0.21786929667 0.3736526072 0.43448841572 0.45875996351 0.23984830081 0.35372510552
          0.29733619094 0.27795094252 0.36564874649 0.4153906703 0.29735758901 0.21868892014
          0.25576728582 0.27834433317 0.31628268957 0.36521741748 0.19552285969 0.35262024403
          0.41394802928 0.43832138181 0.21769705415 0.31632637978 0.25979426503 0.24039532244
          0.32828387618 0.37810245156 0.25974982977 0.1806665957 0.2180006206 0.24061903358
          0.27874737978 0.32791694999 0.15751050413 0.31534668803 0.37691646814 0.40122905374
          0.17995099723 0.2637116611 0.20697394013 0.1875320524 0.27581307292 0.32578805089
          0.2068952173 0.12719237804 0.16489167511 0.18761429191 0.22603644431 0.27550402284
          0.10399892181 0.26299005747 0.32493489981 0.34921306372 0.12676478922 0.19666709006
          0.13983812928 0.120452784 0.20881612599 0.25877147913 0.13977174461 0.059588272125
          0.09758541733 0.12039975822 0.15894438326 0.20862624049 0.036434154958 0.19620676339
          0.25826135278 0.28235259652 0.059452906251 0.11657324433 0.059889409691 0.040694143623
          0.12858204544 0.1783170253 0.059724558145 -0.020359853283 0.017636936158 0.04040350765
          0.078881651163 0.12845343351 -0.043418709189 0.11618757248 0.1780025959 0.2018763274
          -0.020252147689 0.026166409254 -0.03035053052 -0.049397818744 0.038084179163 0.087621331215
          -0.030501464382 -0.11047057062 -0.07253510505 -0.049709290266 -0.011474787258 0.03799854964
          -0.13351251185 0.025916678831 0.087528534234 0.11116340756 -0.11025992781 -0.071424469352
          -0.12810882926 -0.14713063836 -0.059575546533 -0.0099792992696 -0.12815669179 -0.20826531947
          -0.17035922408 -0.14724296331 -0.10916232318 -0.059617269784 -0.23145543039 -0.071526616812
          -0.010059956461 0.013515434228 -0.20816294849 -0.17320349813 -0.23022778332 -0.24926421046
          -0.16143491864 -0.11163904518 -0.23027437925 -0.31080830097 -0.27273130417 -0.24936290085
          -0.21121923625 -0.16142496467 -0.33419948816 -0.17327313125 -0.11165458709 -0.088094584644
          -0.31069970131 -0.27652093768 -0.33348432183 -0.35248607397 -0.26476931572 -0.21500945091
          -0.33355227113 -0.41404101253 -0.37599995732 -0.35258606076 -0.31451964378 -0.26477754116
          -0.43751403689 -0.2765468061 -0.21497064829 -0.1914370507 -0.4139688015 0.078175082803
          0.03940486908 0.02116901055 0.092235833406 0.1269557476 0.047139421105 -0.011986926198
          0.011584367603 0.036891207099 0.057456791401 0.096894457936 -0.034403301775 0.093493364751
          0.13631701469 0.14908580482 -0.021721443161 0.03597304225 -0.020395809785 0.027436263859
          0.044676341116 0.083204656839 0.08197273314 0.12205082923 0.080465950072 0.034873303026
          0.019736954942 0.065882138908 0.019231105223 0.0033434557263 0.089676335454 0.075769491494
          0.12972863019 0.11674295366 0.034470133483 -0.029094193131 0.0011323662475 0.019058952108
          -0.04673891142 -0.015516183339 0.018894629553 0.0030944584869 0.049873486161 0.034848708659
          0.089171089232 0.075588516891 -0.047386515886 -0.065732307732 0.078817598522 0.065330587327
          0.12828227878 0.1163033843 0.14796453714 0.13606618345 -0.029005307704 -0.046764772385
          0.042651727796 -0.0051365583204 -0.021094147116 0.052505496889 0.094305664301 -0.0054236636497
          -0.072869844735 -0.04081761837 -0.021659092978 0.01069962047 0.052347414196 -0.092263139784
          0.04210902378 0.093997061253 0.11397226155 -0.072521165013 0.014185082167 -0.034360375255
          -0.050404969603 0.024158636108 0.066492237151 -0.034668903798 -0.10350107402 -0.070743098855
          -0.051100201905 -0.018294041976 0.024146435782 -0.12311182171 0.014027629048 0.066670581698
          0.086611181498 -0.10277272761 -0.014870585874 -0.064094766974 -0.080135799944 -0.0048781703226
          0.037936404347 -0.064476825297 -0.13455407321 -0.10111326724 -0.081139415503 -0.047879565507
          -0.0047861207277 -0.15440613031 -0.014868413098 0.038478400558 0.05846170336 -0.13344720006
          -0.040382042527 -0.090439118445 -0.10664819926 -0.030251612887 0.013204844669 -0.090850904584
          -0.1623545289 -0.12821118534 -0.10777299106 -0.073969304562 -0.030095173046 -0.1825645864
          -0.040126435459 0.014074671082 0.034176569432 -0.16100437939 -0.059783089906 -0.11069470644
          -0.12710122764 -0.049496904016 -0.0053425175138 -0.11113622785 -0.18398958445 -0.14916622639
          -0.12834341824 -0.093960650265 -0.049251489341 -0.20452453196 -0.059420723468 -0.0042973104864
          0.016015948728 -0.18244543672 -0.071538709104 -0.12341341376 -0.1400949806 -0.061081003398
          -0.016148237512 -0.12387147546 -0.19816331565 -0.16262464225 -0.14141234756 -0.1063862294
          -0.060851823539 -0.21903571486 -0.071139775217 -0.014992577024 0.0056561399251 -0.19648045301
          -0.075152486563 -0.12801522017 -0.14495117962 -0.064542405307 -0.018729289994 -0.12851533294
          -0.20426113904 -0.1680291146 -0.14636313915 -0.1106903553 -0.064256697893 -0.22554931045
          -0.074692539871 -0.017466245219 0.0035123906564 -0.20247666538 -0.068993113935 -0.1224957034
          -0.13956467807 -0.058246187866 -0.011994642206 -0.12300661951 -0.19983547926 -0.16305406392
          -0.14110018313 -0.10496991128 -0.057904988527 -0.2212986201 -0.068310573697 -0.010428119451
          0.010611222126 -0.19783931971 -0.051208820194 -0.10490985215 -0.12200146168 -0.040407750756
          0.0060220197774 -0.10539407283 -0.18256261945 -0.14562959969 -0.12354274839 -0.08729185909
          -0.039997767657 -0.20410883427 -0.050393912941 0.0077317054383 0.028774956241 -0.18048918247
          -0.020865479484 -0.07475785166 -0.091961637139 -0.0099721010774 0.03659433499 -0.075244292617
          -0.15277513862 -0.11564402282 -0.093473620713 -0.057046134025 -0.0095745967701 -0.1744120419
          -0.020048063248 0.038321536034 0.059444017708 -0.15070316195 0.020931335166 -0.033073984087
          -0.050468232483 0.031956668943 0.078732132912 -0.033511638641 -0.11118859053 -0.074015945196
          -0.05181542784 -0.015260548331 0.032334465533 -0.13291800022 0.021721379831 0.080320760608
          0.10167717189 -0.10929957777 0.071958526969 0.017956398427 0.00036794616608 0.083081156015
          0.12997688353 0.017611388117 -0.05987193808 -0.02286198549 -0.00071456708247 0.035842470825
          0.083425953984 -0.081654474139 0.072648338974 0.13133701682 0.15289834142 -0.05828210339
          0.12870191038 0.074623860419 0.056905940175 0.13993960619 0.18697245419 0.07435310632
          -0.0029958442319 0.033914402127 0.055974267423 0.092606790364 0.14016762376 -0.024845315143
          0.12920841575 0.18803471327 0.20985472202 -0.0017295668367 0.18767483532 0.13345457613
          0.11552266032 0.19896793365 0.2462567091 0.13320840895 0.055990185589 0.092749454081
          0.11483718455 0.15149743855 0.19911305606 0.034015923738 0.18792375922 0.24693803489
          0.26904559135 0.056885302067 0.24592226744 0.19167371094 0.17360693216 0.25718927383
          0.30455514789 0.19151999056 0.11452195048 0.15106771886 0.17322920263 0.20974059403
          0.25724500418 0.09237369895 0.245975703 0.30483239889 0.32715004683 0.1149943769
          0.3027279973 0.24832132459 0.23019771278 0.31396102905 0.3614410162 0.24821029603
          0.17128489912 0.20770540833 0.22991997004 0.26642265916 0.31393480301 0.14901483059
          0.30258688331 0.36145311594 0.3839019537 0.17149215937 0.35789075494 0.30340361595
          0.28523001075 0.3691278398 0.41666823626 0.30338263512 0.22646431625 0.26280412078
          0.28519263864 0.32156395912 0.36910617352 0.20405972004 0.35783180594 0.41661188006
          0.43912741542 0.22648319602 0.41217517853 0.35750052333 0.33926156163 0.42345920205
          0.47113639116 0.35752093792 0.28039804101 0.31678748131 0.33931368589 0.3757416904
          0.42343911529 0.25786155462 0.41214835644 0.47110101581 0.49363070726 0.2803144455
          0.078768849373 0.036473542452 0.021487142891 0.088478423655 0.12566851079 0.037548147142
          -0.022642144933 0.0052537205629 0.023455327377 0.051369406283 0.089024312794 -0.040722671896
          0.08046361804 0.1266747117 0.14401052892 -0.024012036622 0.034628774971 -0.021987143904
          0.024634033442 0.044489979744 0.08234372735 0.079151757061 0.12030103058 -0.029957288876
          -0.042075011879 -0.030562924221 0.00015583899221 -0.0044637531973 0.00047428123071 0.018870498985
          0.037913762033 0.042131688446 0.068197533488 0.067421764135 0.079434871674 0.037470020354
          -0.029849868268 -0.038975585252 -0.030383460224 -0.0066590965725 -0.010334403254 -0.0065762363374
          0.007699046284 0.022687442601 0.025725496933 0.045993011445 0.045116186142 0.054360751063
          0.0220209416 -0.025671672076 -0.03234988451 -0.026219490916 -0.0091649619862 -0.011790584773
          -0.0090002091601 0.0010904618539 0.011837449856 0.013946268708 0.028474187478 0.027716040611
          0.034408167005 0.011294515803 -0.018759913743 -0.023085836321 -0.019067799672 -0.007975300774
          -0.009702431038 -0.0078802155331 -0.0013313937234 0.0056738276035 0.0070027490146 0.01641221717
          0.015982935205 0.020273955539 0.0053322012536 -0.0097655002028 -0.01174398791 -0.0097332326695
          -0.0043820911087 -0.0052836616524 -0.0045311567374 -0.0011710595572 0.0022973266896 0.0029595156666
          0.0075742979534 0.0073537360877 0.0094743780792 0.001997518586 -3.0917785693e-12 1.2134103618e-11
          -3.6060449765e-11 3.1380525348e-12 7.9909742018e-12 2.2586431694e-13 -6.4553527454e-13 1.501521211e-13
          1.8174650424e-14 0 0 0 -6.3030228823e-14
        </DataArray>
        <DataArray type="Float32" Name="uy" format="ascii" RangeMin="-2.0399320126" RangeMax="0.56896281242">
          0.018750937656 0.033969737589 0.041587341577 0.088923946023 0.16273874044 0.17020387948
          0.16929219663 0.018892550841 0.029239818454 0.048168078065 0.088995762169 0.16922539473
          0.16275693476 0.1375772655 0.029281014577 0.048087388277 0.16898660362 0.13750083745
          0.053948573768 0.098253630102 0.17145983875 0.053959399462 0.17153672874 0.17175084352
          0.098229698837 0.054478641599 0.087626807392 0.55512297153 0.50809156895 0.55523639917
          0.53080767393 0.48488634825 0.53088444471 0.48997163773 0.46727767587 0.51872640848
          0.49545261264 0.41427648067 0.40284198523 0.46098327637 0.39357674122 0.38255292177
          0.43903774023 0.36756718159 0.34815308452 0.46108835936 0.43911367655 0.4320333004
          0.410869807 0.46056678891 0.43879404664 0.36758995056 0.34816962481 0.40291562676
          0.38256335258 0.46046927571 0.43868663907 0.51893019676 0.49558073282 0.56874638796
          0.52012515068 0.56896281242 0.50133764744 0.53090149164 0.42323344946 0.41126388311
          0.4713345468 0.37507751584 0.47154021263 0.44157379866 0.47078695893 0.37521865964
          0.41152060032 0.47074604034 0.53125482798 0.56659543514 0.51617103815 0.56684917212
          0.49665302038 0.52726703882 0.41577640176 0.40332132578 0.46557238698 0.36597245932
          0.46578648686 0.43471437693 0.4649015367 0.36610984802 0.40350726247 0.46481028199
          0.52762424946 0.54379552603 0.49174809456 0.54397499561 0.47160226107 0.50318306684
          0.38829082251 0.37547263503 0.43958732486 0.3370052278 0.43982350826 0.40776500106
          0.43882083893 0.33703133464 0.37552598119 0.43869844079 0.50346559286 0.49747133255
          0.44416716695 0.49745818973 0.4236766696 0.45604389906 0.33849057555 0.3255469799
          0.39089143276 0.28613495827 0.39114058018 0.35830062628 0.39016774297 0.2859570682
          0.32523319125 0.39000386 0.45604893565 0.42882528901 0.37443551421 0.42867252231
          0.35361671448 0.38671410084 0.2667914331 0.25373345613 0.32019600272 0.21348260343
          0.32041561604 0.28694495559 0.31949451566 0.21313495934 0.25319996476 0.31933167577
          0.38647800684 0.3393086791 0.28383824229 0.33903819323 0.26269060373 0.29650953412
          0.17410710454 0.16090968251 0.22860871255 0.11975456774 0.22881656885 0.19461885095
          0.22793987393 0.1192734614 0.16011054814 0.22770494223 0.29608827829 0.22913810611
          0.17259801924 0.2286747247 0.15115524828 0.1856970042 0.061023224145 0.047787535936
          0.11647021025 0.0057565667666 0.11663933843 0.081838227808 0.11590467393 0.0050724982284
          0.046650402248 0.1156116277 0.18501150608 0.099788375199 0.042389463633 0.099178485572
          0.020665783435 0.055874701589 -0.070743359625 -0.083943225443 -0.014475594275 -0.12672291696
          -0.014345770702 -0.049678359181 -0.01500979811 -0.12761163712 -0.085469558835 -0.015345260501
          0.054911293089 -0.046757716686 -0.10476948321 -0.047438506037 -0.12669566274 -0.091127917171
          -0.21910434961 -0.23240382969 -0.16221544147 -0.27573096752 -0.16210508347 -0.19787818193
          -0.1626932174 -0.27671092749 -0.23408351839 -0.16312840581 -0.092116698623 -0.21026499569
          -0.26874119043 -0.21096119285 -0.29077872634 -0.25489071012 -0.38402304053 -0.39741709828
          -0.32664203644 -0.44111263752 -0.32653045654 -0.3625434339 -0.32709851861 -0.44208246469
          -0.39903619885 -0.32741311193 -0.25595402718 -0.39003416896 -0.44862657785 -0.39069575071
          -0.47072377801 -0.43467837572 -0.56434971094 -0.57773596048 -0.50668406487 -0.62175238132
          -0.50660258532 -0.54272925854 -0.50703579187 -0.62265539169 -0.57928842306 -0.50733274221
          -0.43570455909 -0.58203887939 -0.64091193676 -0.58267331123 -0.66310715675 -0.62678420544
          -0.75735980272 -0.77076166868 -0.69926530123 -0.81521481276 -0.69922673702 -0.73555165529
          -0.69945079088 -0.81604218483 -0.77219372988 -0.69976693392 -0.62773859501 -0.78268265724
          -0.84153491259 -0.78320491314 -0.86380714178 -0.82743293047 -0.95825642347 -0.97162699699
          -0.89991641045 -1.0163795948 -0.89996689558 -0.93634134531 -0.89993584156 -1.0171436071
          -0.97296625376 -0.90038156509 -0.82815188169 -0.9879155755 -1.0464984179 -0.98830795288
          -1.0686775446 -1.0324196815 -1.1629340649 -1.1762725115 -1.1046929359 -1.2209862471
          -1.1047559977 -1.140936017 -1.1046618223 -1.2215927839 -1.177349329 -1.1049497128
          -1.0329939127 -1.193641901 -1.251994133 -1.1939200163 -1.2741522789 -1.238016367
          -1.3683089018 -1.3817180395 -1.3100975752 -1.4263612032 -1.3101685047 -1.3462811708
          -1.3100246191 -1.4268043041 -1.3824981451 -1.3102728128 -1.2383919954 -1.3983248472
          -1.4566745758 -1.3984999657 -1.4789255857 -1.4428091049 -1.5731065273 -1.5866131783
          -1.5148326159 -1.6312403679 -1.5149161816 -1.5510154963 -1.5147417784 -1.6315526962
          -1.5871819258 -1.5150340796 -1.4429643154 -1.6020065546 -1.6605163813 -1.6020485163
          -1.6828263998 -1.646660924 -1.7774589062 -1.7911561728 -1.7189620733 -1.8359274864
          -1.7189582586 -1.755143404 -1.7189116478 -1.8360443115 -1.7913812399 -1.718996048
          -1.6467237473 -1.8056241274 -1.8641607761 -1.8056576252 -1.8865050077 -1.8502987623
          -1.9813395739 -1.9951843023 -1.9227540493 -2.0398972034 -1.9227515459 -1.9589489698
          -1.922765255 -2.0399320126 -1.9951587915 -1.9227217436 -1.8503423929 0.40272757411
          0.37403962016 0.40293687582 0.36300802231 0.38060939312 0.31683978438 0.30997252464
          0.34536448121 0.28829151392 0.34538543224 0.32777869701 0.34538906813 0.28844466805
          0.31019175053 0.34534990788 0.3809042871 0.17316351831 0.1733841151 0.1744826138
          0.17148955166 0.17276711762 0.17483493686 0.17401999235 -0.15899701416 -0.11203990877
          -0.15861958265 -0.093155503273 -0.044988092035 -0.09288199991 -0.094197295606 -0.026633502916
          -0.1231758967 -0.056370545179 -0.019306419417 -0.0087642082945 -0.065589822829 0.050820533186
          0.061767250299 0.0029048603028 0.026578938589 0.098520107567 -0.065510377288 0.0029699529987
          -0.036531548947 0.032835524529 -0.065526738763 0.0029135544319 0.027428710833 0.099142618477
          -0.0072776428424 0.062900386751 -0.064930662513 0.003378800815 -0.12270689756 -0.056089412421
          -0.022509714589 0.026564314961 -0.022426486015 0.045317862183 0.014970782213 0.12456721067
          0.13581109047 0.075465902686 0.17346987128 0.075609594584 0.10600680113 0.075372636318
          0.17383633554 0.13655352592 0.075778827071 0.014991639182 0.048706933856 0.098314836621
          0.048612207174 0.11743210256 0.086639605463 0.19789846241 0.20933021605 0.14789417386
          0.24783475697 0.14811317623 0.17897684872 0.14759282768 0.24799157679 0.20982182026
          0.14814686775 0.08628962189 0.11460864544 0.16477753222 0.11432598531 0.18414646387
          0.15292972326 0.2660408318 0.27770060301 0.2151208967 0.31691002846 0.21535788476
          0.24664796889 0.21464778483 0.31689545512 0.27778476477 0.21508616209 0.15232779086
          0.16954030097 0.22051048279 0.16911409795 0.24023619294 0.2084505558 0.32373526692
          0.33559143543 0.27175560594 0.37564775348 0.27202236652 0.30385661125 0.27116137743
          0.37547436357 0.33543375134 0.27158227563 0.20763269067 0.21097402275 0.26273235679
          0.21046036482 0.28280025721 0.25052812696 0.36769130826 0.37977612019 0.31479212642
          0.42060101032 0.3151140213 0.34745284915 0.31414324045 0.42031183839 0.37948203087
          0.31457465887 0.24951940775 0.23602846265 0.28872612119 0.23547142744 0.30919128656
          0.27629229426 0.39572027326 0.40797150135 0.34176746011 0.4496204257 0.34212499857
          0.37506619096 0.3410167098 0.44934183359 0.40768349171 0.34154617786 0.27519962192
          0.24316087365 0.29691058397 0.24257327616 0.31777974963 0.28418800235 0.40608170629
          0.41858255863 0.35101756454 0.4610837698 0.35138058662 0.3849863112 0.3502278924
          0.46071079373 0.41818967462 0.35065510869 0.28301826119 0.23174758255 0.28600403666
          0.23112429678 0.30708152056 0.27312445641 0.39638829231 0.40905150771 0.34066784382
          0.45215383172 0.34104010463 0.37496292591 0.33980587125 0.45171204209 0.40847563744
          0.34021151066 0.27191743255 0.199341923 0.25381341577 0.19869434834 0.27494555712
          0.24080085754 0.36468732357 0.37741425633 0.3087067008 0.42074164748 0.3090929091
          0.34313595295 0.30779018998 0.42024433613 0.37674587965 0.30812898278 0.23963604867
          0.14328949153 0.19797930121 0.14262588322 0.21920730174 0.18492931128 0.30929195881
          0.3220603466 0.25309610367 0.36558136344 0.25346589088 0.28765285015 0.25216659904
          0.36506700516 0.32137057185 0.25251445174 0.18371769786 0.063227899373 0.11822440475
          0.062680639327 0.13951815665 0.10506929457 0.22993528843 0.24272437394 0.17355971038
          0.28630709648 0.17392979562 0.20827239752 0.17271313071 0.28592178226 0.24222758412
          0.17306633294 0.10403294861 -0.038639176637 0.016547596082 -0.038957875222 0.037784587592
          0.0032858133782 0.12817575037 0.14092960954 0.071914292872 0.18442727625 0.072232685983
          0.10662291944 0.071173109114 0.18420180678 0.14071500301 0.071488022804 0.0025949189439
          -0.15933924913 -0.10396895558 -0.15951128304 -0.082715168595 -0.11730575562 0.0076957787387
          0.020447663963 -0.048480160534 0.063821554184 -0.048262633383 -0.013783453032 -0.049066599458
          0.063771694899 0.020499275997 -0.048779837787 -0.11767268926 -0.29439941049 -0.23875319958
          -0.29442992806 -0.21748527884 -0.25215381384 -0.12700842321 -0.11415578425 -0.18312826753
          -0.07095387578 -0.1829521656 -0.14840719104 -0.18351648748 -0.070862464607 -0.11395713687
          -0.18333095312 -0.2522611022 -0.4386267066 -0.38285091519 -0.43860083818 -0.36157482862
          -0.39616549015 -0.27116891742 -0.25823399425 -0.32713678479 -0.21529795229 -0.32704395056
          -0.29251521826 -0.32736492157 -0.21522386372 -0.25804167986 -0.32726234198 -0.39620402455
          -0.58819270134 -0.53235924244 -0.58817261457 -0.51103323698 -0.54558968544 -0.42071205378
          -0.40765213966 -0.47657006979 -0.36489489675 -0.47653907537 -0.44200891256 -0.47664359212
          -0.36478334665 -0.40746870637 -0.47657829523 -0.54557722807 -0.73938703537 -0.68346637487
          -0.7393450141 -0.66210991144 -0.69667774439 -0.57172340155 -0.55859738588 -0.6276050806
          -0.51588177681 -0.62760418653 -0.59303057194 -0.62761628628 -0.51578456163 -0.55842232704
          -0.62753760815 -0.69663619995 -0.89003163576 -0.83394414186 -0.89000350237 -0.81255096197
          -0.84723716974 -0.7219325304 -0.70869201422 -0.77789527178 -0.66591542959 -0.77792954445
          -0.74332773685 -0.77786195278 -0.66591328382 -0.70869618654 -0.77794879675 -0.84711164236
          -0.15582151711 -0.1112671718 -0.15549229085 -0.09443578124 -0.12194929272 -0.02360701561
          -0.013703933917 -0.067413836718 0.019884323701 -0.067274525762 -0.039910990745 -0.067467562854
          0.020683089271 -0.012309473008 -0.066919155419 -0.12147499621 0.074905343354 0.079429142177
          0.095869682729 0.054117482156 0.067186184227 0.096414059401 0.080438144505 0.084273532033
          0.048525948077 0.012708141468 -0.0093851620331 0.048470873386 0.10590941459 0.04851250723
          -0.0090135894716 0.048634953797 0.013342742808 0.084268122911 0.048915863037 0.1058460772
          0.048312224448 0.021010128781 -0.0067309574224 -0.024038469419 0.020651463419 0.064951442182
          0.020623305812 -0.023827990517 0.020744713023 -0.0062860357575 0.048312600702 0.021240087226
          0.064892679453 0.024974824861 0.0053877830505 -0.014478470199 -0.026911972091 0.0051011443138
          0.036731392145 0.0050807581283 -0.026698274538 0.0051640043966 -0.01412075758 0.024857779965
          0.005521224346 0.036638729274 0.012635289691 -0.0001770160161 -0.013122638687 -0.02115944773
          -0.00032431184081 0.02036485821 -0.00034405093174 -0.021008858457 -0.0002746465907 -0.012828100473
          0.012497182004 -4.9347130698e-05 0.020255560055 0.0054318443872 -0.00078245659824 -0.0070214136504
          -0.010906815529 -0.00078835396562 0.0093203261495 -0.00078113586642 -0.010875076056 -0.00073853932554
          -0.0069181653671 0.0055464613251 -0.00064158038003 0.0093653965741 2.5562301841e-12 6.6237974307e-12
          -7.3584248503e-13 1.4535753243e-12 3.6570746431e-12 -2.1101597032e-12 6.2948138455e-13 -1.2937136713e-13
          1.8030222836e-14 0 0 0 -7.0395112536e-14
        </DataArray>
        <DataArray type="Float32" Name="uz" format="ascii" RangeMin="-0.17220772803" RangeMax="0.1284262836">
          0.018489843234 0.008091615513 0.021279191598 0.011754333042 0.002450253116 0.0063868183643
          -0.0068451133557 0.0059081367217 -0.0089118741453 -0.0075023318641 -0.0037087169476 -0.024470327422
          -0.010130846873 -0.017164561898 0.033595073968 0.025749906898 0.017307611182 0.015584642068
          -0.0010156891076 -0.016304459423 -0.01392976474 -0.012901682407 -0.025713099167 0.021366287023
          0.0250481572 0.03563727811 0.0039349845611 -0.043559774756 -0.040785904974 -0.049161527306
          -0.041042450815 -0.040947414935 -0.049755752087 -0.033097926527 -0.030470585451 -0.033665191382
          -0.028737222776 -0.026695096865 -0.031002577394 -0.036825068295 -0.027738867328 -0.03578838706
          -0.03925107047 -0.021170670167 -0.023528378457 -0.032361574471 -0.032107848674 -0.024414697662
          -0.022187910974 -0.041423860937 -0.046560078859 -0.015601407737 -0.014377804473 -0.016411937773
          -0.0120837586 -0.023325920105 -0.017671616748 -0.04833393544 -0.051852233708 -0.047888230532
          -0.040577802807 -0.048600938171 -0.037008441985 -0.041270636022 -0.02485823445 -0.02385683544
          -0.033076807857 -0.017291819677 -0.032559305429 -0.027271956205 -0.033784583211 -0.016521176323
          -0.021893596277 -0.031364664435 -0.043200194836 -0.053583599627 -0.040377557278 -0.047993794084
          -0.042081534863 -0.051254946738 -0.022431109101 -0.014424406923 -0.028252694756 -0.012063836679
          -0.032826974988 -0.030964842066 -0.023822698742 -0.017599044368 -0.028957407922 -0.041860930622
          -0.036602891982 -0.059418369085 -0.039804097265 -0.046488188207 -0.04780253768 -0.06241421029
          -0.020195184276 -0.0041093123145 -0.02276840806 -0.0070392535999 -0.033251006156 -0.035672735423
          -0.012289529666 -0.020009713247 -0.038034792989 -0.054244186729 -0.028470171615 -0.063840314746
          -0.038382250816 -0.043117493391 -0.053365077823 -0.073099263012 -0.018806144595 0.005526474677
          -0.017021585256 -0.0036866983864 -0.033755704761 -0.041265066713 -0.0002280962799 -0.024453867227
          -0.048745539039 -0.067315526307 -0.018806379288 -0.066311836243 -0.036194711924 -0.038127459586
          -0.05833189562 -0.08234192431 -0.018527030945 0.013522512279 -0.011595123447 -0.0024980865419
          -0.034410711378 -0.047391217202 0.011241486296 -0.030726060271 -0.060321245342 -0.080039843917
          -0.0084866313264 -0.067165262997 -0.033324141055 -0.031727492809 -0.062675453722 -0.090377524495
          -0.019118515775 0.020169781521 -0.0064029009081 -0.0030227929819 -0.035080831498 -0.053875878453
          0.022271567956 -0.038466796279 -0.072579622269 -0.09242849052 0.0024524950422 -0.066124126315
          -0.029746739194 -0.023874491453 -0.066235274076 -0.09684689343 -0.020741332322 0.025175468996
          -0.0016197529621 -0.0054913754575 -0.035779379308 -0.060659356415 0.032604597509 -0.047790203243
          -0.085481613874 -0.10420872271 0.01386837475 -0.062913119793 -0.025552969426 -0.014509619214
          -0.069014646113 -0.10138332844 -0.023723462597 0.027868801728 0.0024349456653 -0.010576036759
          -0.036738153547 -0.067898392677 0.041637375951 -0.05906277895 -0.09900624305 -0.11517269164
          0.025439267978 -0.05825471133 -0.020957030356 -0.0039801644161 -0.071399971843 -0.10481211543
          -0.027807818726 0.028909567744 0.0059650889598 -0.017641404644 -0.037966288626 -0.075643345714
          0.049891013652 -0.07196302712 -0.11329304427 -0.1258444041 0.037310451269 -0.053281951696
          -0.016242118552 0.0066500403918 -0.073428839445 -0.10776719451 -0.031981669366 0.029592188075