<VTKFile type="UnstructuredGrid" version="1.0" byte_order="LittleEndian" header_type="UInt64">
  <UnstructuredGrid>
    <Piece NumberOfPoints="791" NumberOfCells="973">
      <PointData>
        <DataArray type="Float32" Name="ux" format="ascii" RangeMin="-0.46836313605" RangeMax="0.801882267">
          -0.23683300614 -0.18544280529 -0.22116859257 -0.24486494064 -0.23474413157 -0.2202783376
          -0.18905426562 -0.19099771976 -0.13291186094 -0.15333817899 -0.18924999237 -0.14315758646
          -0.19286218286 -0.15623767674 -0.26974353194 -0.26795649529 -0.26016780734 -0.26563432813
          -0.14492504299 -0.13771003485 -0.15232519805 -0.1070952341 -0.11976657808 -0.24814450741
          -0.26856675744 -0.25491863489 -0.21906915307 -0.024208039045 -0.055013395846 -0.064758621156
          -0.075481727719 -0.089342683554 -0.093247137964 -0.016409669071 -0.073110274971 0.0095902336761
          -0.061320338398 -0.057096108794 -0.10580588877 -0.080578759313 -0.091092586517 -0.10892517865
          -0.099421560764 -0.070008158684 -0.096759781241 -0.044248335063 -0.085211217403 -0.015341237187
          -0.074518166482 -0.11707720906 -0.11309984326 -0.022075787187 -0.078107267618 0.01605803147
          -0.062462754548 0.026525123045 -0.055771943182 -0.10027718544 -0.10763900727 0.00015839094704
          -0.043546434492 -0.058380316943 0.012431731448 0.050033722073 -0.044306535274 -0.11552701145
          -0.080016151071 -0.061713006347 -0.027951074764 0.014533809386 -0.13309553266 0.0061279046349
          0.058737851679 0.073938943446 -0.11100352556 0.017661638558 -0.036587547511 -0.056389767677
          0.031492292881 0.079238109291 -0.035689651966 -0.12073525786 -0.08041010052 -0.05658543855
          -0.01692118682 0.03554623574 -0.14364248514 0.02623158507 0.08859141916 0.10665757954
          -0.11659301072 0.046418953687 -0.015833394602 -0.036225475371 0.062082510442 0.11683693528
          -0.01374283433 -0.11252691597 -0.064795702696 -0.036729674786 0.0070527102798 0.066074304283
          -0.13753664494 0.056744042784 0.12709411979 0.14885695279 -0.10629501939 0.092301875353
          0.019368119538 -0.0050141704269 0.11093620211 0.17500904202 0.022030647844 -0.091227479279
          -0.037147805095 -0.004298413638 0.04635265097 0.11507774144 -0.12175564468 0.10271518677
          0.18476238847 0.21152159572 -0.085410915315 0.17021279037 0.082167580724 0.051545068622
          0.19197018445 0.26971465349 0.083312019706 -0.047066763043 0.015104950406 0.052981778979
          0.11343349516 0.19465851784 -0.083041891456 0.17730681598 0.27671188116 0.31139186025
          -0.045257255435 0.22269654274 0.12577182055 0.091201238334 0.24532024562 0.33083245158
          0.1262062192 -0.010680266656 0.053712088615 0.092331811786 0.15923494101 0.2460206002
          -0.049207374454 0.22494128346 0.333265692 0.37290716171 -0.011151903309 0.22246213257
          0.13136322796 0.098075322807 0.24352650344 0.3246602118 0.13280585408 0.0055772685446
          0.064384333789 0.10323726386 0.16324570775 0.24347983301 -0.034028586 0.22381196916
          0.32427078485 0.36339664459 0.00031366373878 0.17715325952 0.094334587455 0.062437810004
          0.19733066857 0.2704873383 0.09978017956 -0.016696166247 0.034234263003 0.074054151773
          0.12611867487 0.19867154956 -0.056467488408 0.18342791498 0.27150756121 0.30541595817
          -0.027554359287 0.12728233635 0.047948952764 0.017424503341 0.14580111206 0.21595862508
          0.054557777941 -0.053066972643 -0.0075781675987 0.032444555312 0.077006168664 0.14682611823
          -0.091670460999 0.13286727667 0.21470634639 0.24828156829 -0.067046165466 0.061403214931
          -0.0065510165878 -0.034035019577 0.07749184221 0.13714797795 -8.1698381109e-05 -0.090903639793
          -0.053345348686 -0.018898533657 0.018459092826 0.076540492475 -0.12701964378 0.063272856176
          0.13109208643 0.16224013269 -0.10663656145 -0.027998866513 -0.091533064842 -0.11761151999
          -0.013858974911 0.04229427129 -0.082547277212 -0.16213932633 -0.13220766187 -0.096965461969
          -0.06637096405 -0.013982378878 -0.19610917568 -0.024866998196 0.033830992877 0.062436036766
          -0.18222612143 -0.12208519131 -0.18007773161 -0.20207111537 -0.1117227897 -0.061441231519
          -0.17512921989 -0.24661029875 -0.21821133792 -0.18966265023 -0.15967205167 -0.11331196129
          -0.27673557401 -0.12435416132 -0.070170022547 -0.044239714742 -0.26191219687 -0.20126862824
          -0.2630636394 -0.28412598372 -0.19111920893 -0.13703842461 -0.26117086411 -0.3411411345
          -0.30680802464 -0.27658674121 -0.24264825881 -0.19211529195 -0.37128594518 -0.20272989571
          -0.14304596186 -0.11665122211 -0.35043230653 -0.23995022476 -0.32252702117 -0.34886875749
          -0.22633180022 -0.15694122016 -0.31835341454 -0.43050459027 -0.38159227371 -0.33964049816
          -0.29519036412 -0.22497943044 -0.46836313605 -0.23613768816 -0.15658570826 -0.12740506232
          -0.43703141809 -0.18943066895 -0.28448656201 -0.31145146489 -0.17578272521 -0.097555972636
          -0.28237357736 -0.4126547575 -0.35400804877 -0.30666905642 -0.25418439507 -0.17541337013
          -0.45588225126 -0.18676149845 -0.098705627024 -0.064434714615 -0.415938586 0.00088963605231
          -0.0936986655 -0.12058673799 0.01414291095 0.093308471143 -0.094690315425 -0.22521822155
          -0.16434207559 -0.12181206793 -0.065472491086 0.014732062817 -0.26516646147 0.00058988190722
          0.094263583422 0.12771384418 -0.22400654852 0.31142047048 0.22747121751 0.20163685083
          0.32848441601 0.40091058612 0.22875009477 0.10838446766 0.16430008411 0.20239926875
          0.25486364961 0.32982558012 0.073298342526 0.31599971652 0.40496721864 0.43591752648
          0.10942706466 0.67719650269 0.59323507547 0.56604206562 0.69430077076 0.76782608032
          0.59476482868 0.4765753746 0.53205049038 0.5684787631 0.62214553356 0.69523137808
          0.4421389401 0.67897546291 0.76881045103 0.801882267 0.47647857666 -0.17825675011
          -0.15659762919 -0.16187420487 -0.16642838717 -0.18352006376 -0.1379095912 -0.12121007591
          -0.13936647773 -0.12599310279 -0.15093949437 -0.1549243927 -0.12688732147 -0.13827173412
          -0.15645176172 -0.17494782805 -0.14265657961 -0.15993127227 -0.1159723103 -0.1354175061
          -0.18452364206 -0.19989022613 -0.17353534698 -0.21663062274 -0.066762194037 -0.051085114479
          -0.048137202859 0.0064349872991 0.026310453191 0.030119368806 -0.069122768939 0.0051356852055
          -0.080901071429 -0.011425072327 -0.050273545086 -0.026117388159 -0.039477270097 0.02853724733
          0.058057773858 0.0428782776 -0.043365746737 0.03610484302 -0.056400131434 0.021264100447
          -0.069670304656 0.0054011764005 -0.02257864736 0.064492896199 -0.066064581275 0.0090861264616
          -0.082572363317 -0.010359941982 -0.087023504078 -0.017440391704 -0.030851868913 0.052828475833
          0.04549517855 0.069164447486 0.075882010162 0.042326565832 0.023196626455 0.07001388818
          0.10349209607 0.087401427329 0.077846989036 0.061738796532 0.04261507839 0.11359038204
          0.046938825399 0.023794228211 0.015325453132 0.10232935101 0.065333716571 0.087105944753
          0.09431283921 0.059750042856 0.041556969285 0.087110698223 0.12001028657 0.10451488942
          0.095049738884 0.078905440867 0.058646604419 0.12802836299 0.062337815762 0.037840172648
          0.031071422622 0.11847171932 0.07940005511 0.10085932165 0.10782561451 0.075672611594
          0.056811694056 0.10021644831 0.1279078722 0.11525435001 0.10575462878 0.093230776489
          0.075995773077 0.13779273629 0.080613292754 0.059059847146 0.048369161785 0.13002584875
          0.084551073611 0.10720477253 0.11435137689 0.081877030432 0.061924163252 0.10612838715
          0.13486301899 0.12255501002 0.11108579487 0.10008195043 0.083104528487 0.14750048518
          0.086328200996 0.06537823379 0.054591257125 0.14030098915 0.072872936726 0.098301693797
          0.10726214945 0.069361649454 0.046381276101 0.096374168992 0.1276076436 0.11490830779
          0.10176067799 0.090013407171 0.070213809609 0.141527161 0.075149565935 0.052423905581
          0.040731627494 0.13344632089 0.02878266573 0.051823221147 0.059554044157 0.026528896764
          0.0073186554946 0.051015600562 0.074738718569 0.065053351223 0.05620566383 0.045263923705
          0.029431303963 0.085562743247 0.035043746233 0.015777138993 0.0038193508517 0.080990098417
          -0.019690958783 0.0012300818926 0.0092942630872 -0.022789621726 -0.042040720582 0.0025591733865
          0.025455970317 0.015242202207 0.0085305972025 -0.0044457325712 -0.019384508952 0.034622874111
          -0.011649449356 -0.033823132515 -0.046117290854 0.030344596133 -0.023715496063 -0.0093436772004
          -0.0028257451486 -0.028486473486 -0.042029574513 -0.0090481247753 0.012903946452 0.0020526512526
          -0.0028035135474 -0.014884198084 -0.02789202705 0.018458608538 -0.023819316179 -0.042077366263
          -0.049204774201 0.012902563438 0.014689127915 0.019184252247 0.020342377946 0.013172972016
          0.008356012404 0.020217685029 0.027324572206 0.023753009737 0.022883107886 0.018403541297
          0.012288409285 0.02724628523 0.012547389604 0.0036237891763 0.0036910413764 0.023903394118
          0.046280991286 0.039902232587 0.035155300051 0.047801092267 0.05610293895 0.041884314269
          0.036950636655 0.037649698555 0.040192849934 0.041986230761 0.046965070069 0.032080665231
          0.043442253023 0.049506634474 0.056559469551 0.030235795304 0.048117436469 0.040297687054
          0.036476582289 0.048794660717 0.056967869401 0.042702779174 0.041459459811 0.039653144777
          0.043242618442 0.043393969536 0.047175418586 0.0363657251 0.044068660587 0.048458948731
          0.056341636926 0.032160993665 0.0053905346431 0.014249243774 0.017212297767 0.0024536203127
          -0.0043693329208 0.015145205893 0.033778663725 0.023280456662 0.019944202155 0.01055675
          0.00029467657441 0.035365339369 0.00011928274762 -0.012491884641 -0.012732294388 0.026724070311
          -0.048086494207 -0.024151623249 -0.016685798764 -0.055298656225 -0.075710706413 -0.021800538525
          0.019195267931 -0.0033196110744 -0.01051102858 -0.032333664596 -0.055793758482 0.026414290071
          -0.049478698522 -0.080428890884 -0.089262068272 0.012447683141 -0.078526459634 -0.043702468276
          -0.03133212775 -0.086730018258 -0.11770947278 -0.04199660942 0.0078057115898 -0.01732772775
          -0.028873257339 -0.055044244975 -0.08661326766 0.019942607731 -0.077285863459 -0.11858166754
          -0.13339328766 0.0049320305698 -0.064113423228 -0.029275830835 -0.016737105325 -0.072269357741
          -0.1031472981 -0.031294066459 0.020046511665 -0.003783054417 -0.019738743082 -0.042313430458
          -0.073675818741 0.035326804966 -0.067119978368 -0.10537934303 -0.11965494603 0.020809985697
          -0.052205573767 -0.0034506397787 0.011377949268 -0.059779401869 -0.10130628943 -0.0032885512337
          0.062203895301 0.031654208899 0.011339928955 -0.019480714574 -0.06001579389 0.082837238908
          -0.050862003118 -0.10034586489 -0.11914598197 0.06356574595 -0.05641246587 0.0022066319361
          0.021156905219 -0.068498082459 -0.11887925863 0.0012764455751 0.084003590047 0.045537874103
          0.019902564585 -0.017680309713 -0.06933478266 0.10827860981 -0.058252003044 -0.11983896047
          -0.14305278659 0.085024394095 -0.079284586012 -0.015140275471 0.0054747895338 -0.091808594763
          -0.14626161754 -0.014476601966 0.074536733329 0.032832335681 0.006320277229 -0.03627204895
          -0.091014035046 0.10129795969 -0.078167751431 -0.14641070366 -0.17311058939 0.075508706272
          -0.17337219417 -0.1416041702 -0.14659740031 -0.16241076589 -0.18787121773 -0.11958872527
          -0.083812408149 -0.11395569891 -0.098804883659 -0.13753592968 -0.14952200651 -0.090730719268
          -0.12909556925 -0.16236400604 -0.18446584046 -0.11516992748 -0.15467382967 -0.10431491584
          -0.12857943773 -0.18171572685 -0.20040813088 -0.17113040388 -0.21903480589 -0.16275463998
          -0.13949494064 -0.16359908879 -0.22871446609 -0.21898142993 -0.22742253542 -0.27087062597
          -0.31230953336 -0.32253462076 -0.37922185659 -0.37650302052 -0.40248802304 -0.31020000577
          -0.14865291119 -0.11726937443 -0.14632803202 -0.22938853502 -0.21697001159 -0.22599573433
          -0.28054949641 -0.3337469697 -0.34347999096 -0.41641548276 -0.40761363506 -0.44279387593
          -0.32544741035 -0.09964581579 -0.064948797226 -0.093831427395 -0.17800351977 -0.16800525784
          -0.17979568243 -0.2324616611 -0.28342524171 -0.29495164752 -0.36688345671 -0.35875105858
          -0.39378535748 -0.27795344591 -0.030701309443 0.0001743689063 -0.024050263688 -0.0986013785
          -0.089459903538 -0.10140224546 -0.14474953711 -0.1911688 -0.19855947793 -0.26108074188
          -0.25299730897 -0.28418388963 -0.18397544324 0.030407004058 0.044847100973 0.022911118343
          -0.024625919759 -0.010836960748 -0.018531242386 -0.046121429652 -0.077184259892 -0.08019708097
          -0.11445960402 -0.11899876595 -0.13219992816 -0.076715521514 -1.0936387906e-10 3.02294767e-09
          -3.4700345375e-10 1.1344506931e-11 1.3998807322e-11 -1.2196893669e-11 -2.2312342945e-11 1.2673510245e-13
          8.9642773456e-13 0 0 0 -1.1895697101e-12
        </DataArray>
        <DataArray type="Float32" Name="uy" format="ascii" RangeMin="-1.8365547657" RangeMax="1.2813459635">
          -0.067732259631 -0.11270169914 -0.12972159684 -0.12712939084 -0.20152941346 -0.24113859236
          -0.23066033423 -0.066797360778 -0.10077016056 -0.099055856466 -0.12719301879 -0.22233842313
          -0.20265716314 -0.18192665279 -0.10198324919 -0.10006732494 -0.22140103579 -0.1807448566
          -0.15403874218 -0.16164633632 -0.25673449039 -0.15155480802 -0.25476801395 -0.25690045953
          -0.16092477739 -0.15576992929 -0.12174643576 -0.66334164143 -0.69614988565 -0.66314274073
          -0.56058847904 -0.57523268461 -0.56133961678 -0.70736145973 -0.5786473155 -0.68614250422
          -0.56981408596 -0.76478141546 -0.77154946327 -0.72982281446 -0.60098618269 -0.60218209028
          -0.58850765228 -0.80050832033 -0.61197644472 -0.72954428196 -0.58801448345 -0.75008261204
          -0.59506231546 -0.72812044621 -0.58724379539 -0.80068176985 -0.61316919327 -0.77052140236
          -0.60292458534 -0.72577506304 -0.58601886034 -0.68700051308 -0.57186746597 -0.7162565589
          -0.76423126459 -0.71632689238 -0.78144520521 -0.74865114689 -0.86432397366 -0.87647658587
          -0.81392800808 -0.91580319405 -0.81310331821 -0.84268397093 -0.81318026781 -0.91392982006
          -0.87125450373 -0.80729311705 -0.75239688158 -0.70953017473 -0.76846629381 -0.71076083183
          -0.78888297081 -0.75192463398 -0.88713818789 -0.90186184645 -0.82770687342 -0.94878983498
          -0.82661479712 -0.86161226034 -0.82635748386 -0.94632613659 -0.89505791664 -0.82087141275
          -0.75295495987 -0.6341573 -0.70048367977 -0.63377207518 -0.72623330355 -0.68234151602
          -0.83925539255 -0.85304892063 -0.76733583212 -0.91050571203 -0.76914274693 -0.81155902147
          -0.76315689087 -0.90808147192 -0.85163170099 -0.76431673765 -0.68055486679 -0.43832349777
          -0.51555371284 -0.43733680248 -0.546466887 -0.49485900998 -0.67587220669 -0.69239574671
          -0.59289604425 -0.75831949711 -0.59539395571 -0.64503806829 -0.58807384968 -0.75636017323
          -0.69120758772 -0.59103393555 -0.4920245111 -0.10899926722 -0.2039436996 -0.11100653559
          -0.23821568489 -0.17746348679 -0.39230519533 -0.41309383512 -0.29774647951 -0.48717206717
          -0.2978746891 -0.35510274768 -0.29640346766 -0.48599690199 -0.41240698099 -0.2929893434
          -0.1812466383 0.26853391528 0.16558429599 0.26397061348 0.12979115546 0.19403277338
          -0.03195149079 -0.054930999875 0.065644524992 -0.13155677915 0.067144230008 0.0066116000526
          0.065432153642 -0.13255284727 -0.055171620101 0.070416554809 0.18601104617 0.63031941652
          0.53223925829 0.62642091513 0.49787929654 0.55863904953 0.34203734994 0.31750178337
          0.43511351943 0.24768052995 0.43770623207 0.37935563922 0.43187606335 0.24798947573
          0.31980159879 0.43923744559 0.55028653145 0.94181632996 0.85291641951 0.93940913677
          0.82139343023 0.87335622311 0.6815931797 0.65621334314 0.76516991854 0.59562855959
          0.76725810766 0.71441459656 0.75969165564 0.597029984 0.66176980734 0.76565277576
          0.86887639761 1.1662923098 1.0798797607 1.1613730192 1.0515981913 1.1038124561
          0.91749435663 0.8931427002 0.99466621876 0.83782935143 0.9995071888 0.95071542263
          0.98840028048 0.83992427588 0.89911556244 1.00045681 1.091225028 1.2813459635
          1.2072263956 1.2780869007 1.1818223 1.2252101898 1.0690711737 1.0463699102
          1.1334193945 1.0020480156 1.137966156 1.0962888002 1.1266322136 1.0053966045
          1.0540378094 1.1362111568 1.2162790298 1.2790179253 1.2115432024 1.2767158747
          1.1879714727 1.2243359089 1.0922707319 1.0722206831 1.1479430199 1.0352776051
          1.150244832 1.1136636734 1.1396658421 1.0364923477 1.075920701 1.1446927786
          1.2199341059 1.0989874601 1.0398302078 1.0978732109 1.0186494589 1.051010251
          0.93029904366 0.91065251827 0.98112916946 0.87767231464 0.98461210728 0.95150303841
          0.97322499752 0.87981832027 0.91726613045 0.98085004091 1.0466258526 0.78158485889
          0.71735823154 0.78142845631 0.6940253973 0.73111760616 0.59390550852 0.57347410917
          0.65291321278 0.5341527462 0.65500068665 0.61857646704 0.64587438107 0.53789520264
          0.58118438721 0.65369623899 0.72839152813 0.39364919066 0.31411927938 0.39573708177
          0.28197002411 0.32910993695 0.15243673325 0.12682726979 0.2314260751 0.069248341024
          0.2333932966 0.18500809371 0.22884523869 0.075377874076 0.13804942369 0.23274801672
          0.33183243871 -0.061697363853 -0.15180444717 -0.055625509471 -0.18936748803 -0.13528059423
          -0.33885496855 -0.36577928066 -0.24558706582 -0.43332132697 -0.244662866 -0.30032005906
          -0.24683627486 -0.42605239153 -0.3534245491 -0.2450722903 -0.12583817542 -0.5612180233
          -0.6515801549 -0.55582654476 -0.68848198652 -0.63370651007 -0.83989697695 -0.86556696892
          -0.74655485153 -0.93514913321 -0.74602937698 -0.8007119298 -0.74596828222 -0.92864960432
          -0.85420960188 -0.74278658628 -0.62564593554 -1.0481286049 -1.1321126223 -1.0467830896
          -1.1652417183 -1.1120280027 -1.3048502207 -1.3268246651 -1.2174956799 -1.3942484856
          -1.2181278467 -1.2711744308 -1.2169077396 -1.3908538818 -1.3227237463 -1.2169111967
          -1.1105163097 -1.4938440323 -1.5792146921 -1.4934663773 -1.6116170883 -1.559530139
          -1.7502452135 -1.7701208591 -1.6638017893 -1.8365547657 -1.6640759706 -1.7182260752
          -1.6633023024 -1.8363983631 -1.7705209255 -1.6646213531 -1.5583490133 -0.39082276821
          -0.40714451671 -0.39152565598 -0.41251218319 -0.40167322755 -0.44298627973 -0.4460811615
          -0.42493027449 -0.46043416858 -0.42446166277 -0.43488147855 -0.42396181822 -0.45975184441
          -0.44371929765 -0.42130282521 -0.40288561583 -0.28657716513 -0.29062232375 -0.3165897131
          -0.25872850418 -0.27632448077 -0.31697019935 -0.29449373484 -0.020187569782 -0.031718697399
          -0.017577707767 0.068200737238 0.050564583391 0.071737654507 -0.039187651128 0.040803957731
          -0.03105279617 0.051184598356 -0.060607485473 -0.061423450708 -0.044279973954 0.010754189454
          0.0073978775181 0.031883951277 -0.076133430004 -0.0096205594018 -0.046370603144 0.030162630603
          -0.055514682084 0.017169453204 -0.04154965654 0.033673148602 -0.07784756273 -0.0090960990638
          -0.065300598741 0.0048621012829 -0.047066368163 0.0276451502 -0.025753078982 0.058932010084
          0.16688008606 0.14591230452 0.16907054186 0.13670369983 0.14891666174 0.10095056146
          0.095186449587 0.12399815768 0.077784113586 0.12359537929 0.11065421253 0.12377802283
          0.07939261198 0.097469575703 0.12357822806 0.152437374 0.25439208746 0.2336243093
          0.25472283363 0.22483611107 0.23841477931 0.1895442307 0.18280157447 0.21208456159
          0.16430471838 0.21218585968 0.1988132447 0.21066725254 0.16609700024 0.18462768197
          0.21105150878 0.23854456842 0.34136366844 0.31944146752 0.34084576368 0.31134593487
          0.32465347648 0.27588537335 0.26863834262 0.29649981856 0.25487026572 0.29765865207
          0.28471332788 0.29624339938 0.25546348095 0.27150505781 0.29812389612 0.32389712334
          0.41858205199 0.39539900422 0.4195804894 0.38642439246 0.4005279839 0.346596241
          0.33804103732 0.36830866337 0.32521668077 0.37126922607 0.3565787077 0.36664795876
          0.32676389813 0.34291693568 0.37025645375 0.39856562018 0.44122096896 0.41683530807
          0.44222488999 0.40533474088 0.41834202409 0.36672738194 0.35727834702 0.39066311717
          0.34287369251 0.39114117622 0.3756853044 0.38750717044 0.34503513575 0.36110636592
          0.3873770237 0.42123556137 0.36657726765 0.34547159076 0.36775863171 0.33611169457
          0.34688088298 0.30694317818 0.30084392428 0.3248783648 0.29019480944 0.32461804152
          0.31260356307 0.3210247457 0.28962677717 0.29957151413 0.31958705187 0.34758275747
          0.20767214894 0.18529111147 0.20647498965 0.1776663661 0.18997730315 0.14673386514
          0.14143761992 0.1645359695 0.13002501428 0.1650493443 0.15281522274 0.1620144248
          0.12854065001 0.13965150714 0.163435027 0.18741038442 -0.02736588195 -0.04422904551
          -0.028734222054 -0.049965962768 -0.039635367692 -0.076955467463 -0.079765662551 -0.060352005064
          -0.093021407723 -0.06005686149 -0.071156397462 -0.060995601118 -0.094258844852 -0.082704871893
          -0.061172999442 -0.041781913489 -0.29226270318 -0.29828381538 -0.29446855187 -0.29711174965
          -0.29212078452 -0.30858454108 -0.30830317736 -0.30247014761 -0.31494054198 -0.30231422186
          -0.30467063189 -0.30172687769 -0.31534424424 -0.30859231949 -0.29749488831 -0.29759603739
          -0.50681650639 -0.49907368422 -0.5056732893 -0.49422180653 -0.49768981338 -0.48542928696
          -0.48320230842 -0.49080958962 -0.48224762082 -0.49065300822 -0.48496967554 -0.48769065738
          -0.47948527336 -0.47800517082 -0.48407936096 -0.49666836858 -0.60360532999 -0.59548765421
          -0.60123616457 -0.59223842621 -0.59509056807 -0.58620029688 -0.58438664675 -0.58889400959
          -0.58485263586 -0.58989036083 -0.5850417614 -0.58478605747 -0.58166891336 -0.57796102762
          -0.58306676149 -0.591340065 -0.53173136711 -0.54235160351 -0.53181630373 -0.54661649466
          -0.53726392984 -0.56531786919 -0.56404805183 -0.55203688145 -0.57819145918 -0.55372929573
          -0.56063216925 -0.5469173789 -0.57799494267 -0.56470417976 -0.54850226641 -0.53555053473
          -0.34357267618 -0.36974346638 -0.34414738417 -0.3787919879 -0.36099240184 -0.42423388362
          -0.42831459641 -0.39627146721 -0.45244666934 -0.39577487111 -0.41250473261 -0.39344125986
          -0.45328631997 -0.42977705598 -0.3937048316 -0.36248964071 -0.11691087484 -0.15359331667
          -0.11902223527 -0.16585808992 -0.14098083973 -0.22523054481 -0.23242083192 -0.18912905455
          -0.26143911481 -0.18889561296 -0.21034292877 -0.18836820126 -0.26244446635 -0.23367334902
          -0.18606178463 -0.1470617801 0.10803120583 0.070336125791 0.10666311532 0.056956373155
          0.080615311861 -0.0053187101148 -0.014243459329 0.032835189253 -0.043964311481 0.032957512885
          0.0091904168949 0.033616565168 -0.042839877307 -0.013422278687 0.034505065531 0.078853867948
          0.37115675211 0.32312679291 0.37145319581 0.30490446091 0.33418947458 0.22737820446
          0.21421672404 0.2738147974 0.17831137776 0.27522414923 0.24566701055 0.27395382524
          0.17962390184 0.21759527922 0.2771461308 0.33338937163 0.64132219553 0.5825779438
          0.64182406664 0.55957877636 0.59565651417 0.46448236704 0.44915309548 0.52329939604
          0.40480402112 0.52390050888 0.48727443814 0.52255314589 0.40480771661 0.45123338699
          0.52323681116 0.59638124704 0.88397324085 0.8184209466 0.88362914324 0.79403680563
          0.83482187986 0.68831580877 0.6713539958 0.75205028057 0.62367278337 0.75349509716
          0.71382147074 0.75068461895 0.62428492308 0.67413455248 0.75418925285 0.83322417736
          -0.063728421926 -0.077859468758 -0.064019963145 -0.08432751894 -0.073476977646 -0.11477535963
          -0.11656697094 -0.094092793763 -0.13467235863 -0.095576263964 -0.10809407383 -0.091814756393
          -0.13689225912 -0.12013053894 -0.095176629722 -0.073310263455 -0.19297195971 -0.19984024763
          -0.22874930501 -0.15460696816 -0.18061113358 -0.23106998205 -0.20487849414 -0.027517894283
          0.048391461372 0.12303920835 0.1702259928 0.046697396785 -0.07631264627 0.045482136309
          0.16943106055 0.044069543481 0.11918126792 -0.034555979073 0.041486211121 -0.079192176461
          0.098347321153 0.18925696611 0.28295212984 0.34428876638 0.19081960618 0.042216408998
          0.19005392492 0.34526526928 0.189637959 0.2835405767 0.093485184014 0.18690238893
          0.039194457233 0.18224178255 0.2771448493 0.37425151467 0.43750169873 0.2796728611
          0.12604993582 0.27972382307 0.43632593751 0.27797678113 0.3718957901 0.17867173254
          0.2728202641 0.12432226539 0.15514034033 0.2372315526 0.32186192274 0.37637084723
          0.23966254294 0.1062322706 0.24059338868 0.37486949563 0.23957319558 0.32121443748
          0.15600167215 0.23639124632 0.10721614957 0.054389938712 0.10794480145 0.15914148092
          0.18554659188 0.10464517027 0.020210830495 0.10383678973 0.18269702792 0.105095312
          0.15364411473 0.060426823795 0.10938502103 0.024685299024 8.1849318989e-11 4.2716233328e-11
          -6.6851225944e-11 2.9634478899e-11 -1.7447335894e-12 -2.8967744869e-11 -2.7035450701e-12 1.0035118353e-12
          -2.9338109633e-13 0 0 0 3.0972314557e-12
        </DataArray>
        <DataArray type="Float32" Name="uz" format="ascii" RangeMin="-0.28152671456" RangeMax="0.44747728109">
          -0.045328319073 -0.013372560032 -0.05604057759 -0.075462341309 -0.094225205481 -0.10136305541
          -0.058929823339 -0.0020737075247 0.040003784001 0.0223792959 -0.021928993985 -0.0032985801809
          -0.050837486982 -0.0069269281812 -0.090621978045 -0.089528016746 -0.14134947956 -0.12112201005
          0.00733428495 0.019577313215 -0.028329081833 0.042356040329 0.0096186939627 -0.14747869968
          -0.11904221773 -0.10170343518 -0.048930868506 -0.16547386348 -0.13013900816 -0.12740722299
          -0.18566027284 -0.13220362365 -0.13231176138 -0.16208140552 -0.17646071315 -0.19146366417
          -0.22033214569 -0.11611055583 -0.072189301252 -0.1014348343 -0.10911981761 -0.048058770597
          -0.090709738433 -0.0984088853 -0.081578657031 -0.13272644579 -0.13413032889 -0.15335088968
          -0.16261784732 -0.069002650678 -0.047550097108 -0.13779236376 -0.13712586462 -0.17523902655
          -0.19099892676 -0.1955152154 -0.22238130867 -0.09075691551 -0.079502619803 -0.14164102077
          -0.12790428102 -0.12766543031 -0.13795787096 -0.14983052015 -0.11839363724 -0.099775671959
          -0.11385869235 -0.11095757782 -0.12633693218 -0.13284055889 -0.099510490894 -0.12588202953
          -0.14025065303 -0.14946343005 -0.11151461303 -0.11864428967 -0.12091000378 -0.12784714997
          -0.10933089256 -0.10665947199 -0.11020150036 -0.11711852998 -0.11997244507 -0.10717707872
          -0.11234921217 -0.10334633291 -0.12619554996 -0.099388681352 -0.095857530832 -0.097537256777
          -0.13102042675 -0.098601035774 -0.12057795376 -0.13835425675 -0.079984970391 -0.059618126601
          -0.10240802914 -0.14412370324 -0.13533605635 -0.10324907303 -0.1014630273 -0.06875833869
          -0.16832585633 -0.063353702426 -0.03752322495 -0.035625901073 -0.16570518911 -0.085742376745
          -0.13303685188 -0.16815558076 -0.053797904402 -0.0083810398355 -0.10434427857 -0.18762281537
          -0.1644037962 -0.11017816514 -0.098711058497 -0.036325156689 -0.2306457907 -0.028057226911
          0.026921909302 0.034561730921 -0.22303573787 -0.064319349825 -0.13271793723 -0.17767243087
          -0.02529813908 0.039812661707 -0.10224252939 -0.22022210062 -0.18018083274 -0.11587439477
          -0.089132726192 -0.006533596199 -0.27401340008 -0.0013974816538 0.079694285989 0.094468593597
          -0.25739586353 -0.028170762584 -0.11497234553 -0.15396086872 0.0011994704837 0.080673858523
          -0.1001862511 -0.2338797152 -0.17785838246 -0.12505435944 -0.075995132327 0.01090280246
          -0.28152671456 0.0023611595389 0.099381677806 0.12893788517 -0.25024622679 0.0048915157095
          -0.090596534312 -0.11594817787 0.017016692087 0.099909923971 -0.097050145268 -0.22831590474
          -0.16224446893 -0.13207614422 -0.064515158534 0.014055684209 -0.26166474819 -0.0085200974718
          0.092671692371 0.13331989944 -0.21775573492 0.025608969852 -0.059688266367 -0.071333497763
          0.024779269472 0.096571095288 -0.081432744861 -0.18928450346 -0.12582094967 -0.11694582552
          -0.046190198511 0.012265621684 -0.20502537489 -0.016939923167 0.070813007653 0.11388024688
          -0.15919037163 0.040543887764 -0.021355107427 -0.024094259366 0.03345105052 0.085133075714
          -0.050836801529 -0.12212788314 -0.071207202971 -0.081552661955 -0.019123528153 0.015817731619
          -0.12248561531 -0.015502225608 0.050629980862 0.089918360114 -0.084851510823 0.060320660472