<VTKFile type="UnstructuredGrid" version="1.0" byte_order="LittleEndian" header_type="UInt64">
  <UnstructuredGrid>
    <Piece NumberOfPoints="791" NumberOfCells="973">
      <PointData>
        <DataArray type="Float32" Name="ux" format="ascii" RangeMin="-0.0097380829975" RangeMax="0.0096761323512">
          -7.6657132013e-05 0.00017216691049 -0.00043017987628 1.6788873836e-05 0.00010854889115 0.00046369747724
          -0.00013646544539 9.9637079984e-05 0.00087361043552 0.00020129157929 1.762525244e-05 -0.00083796860417
          -6.3059094828e-05 -0.00016314649838 -0.00087279343279 -0.00021829723846 0.00089998159092 0.00024898533593
          0.0006307825679 2.0683710318e-05 -0.0005906347069 0.0013040053891 -0.0012628976256 0.0012652124278
          1.5285775589e-05 -0.0012360890396 1.7360092897e-05 0.0031521972269 -0.0015712389722 -0.0032590283081
          0.00307201338 -0.0015093168477 -0.0031337367836 0.0038394480944 0.0037639164366 0.0079968767241
          0.0077906148508 -0.0013738475973 -0.0069224955514 -0.0046589882113 -0.001337154652 -0.0068239574321
          -0.0045417118818 -0.0025275449734 -0.0024791124742 -4.8800640798e-05 -2.8746435419e-05 0.0035206857137
          0.0034837343264 -0.0092593180016 -0.0090856244788 0.0024387105368 0.0024385626893 0.006808730308
          0.006751655601 0.0091641889885 0.0090134507045 -0.0080799758434 -0.0078282309696 0.0032076376956
          -0.0016052302672 -0.0033478373662 0.0038496435154 0.0080899028108 -0.0013681298587 -0.0068191974424
          -0.0046654916368 -0.0024707112461 -6.4621664933e-05 0.0034658808727 -0.0092671792954 0.0023535224609
          0.0066717676818 0.0091369347647 -0.0082011241466 0.0032535200007 -0.0016360046575 -0.0034190609585
          0.0038750041276 0.0081890374422 -0.0013737087138 -0.0067899236456 -0.0046990015544 -0.002447173465
          -7.6645061199e-05 0.0034506316297 -0.0093218712136 0.0023066070862 0.0066162617877 0.009168474935
          -0.008321935311 0.003289433429 -0.0016582676908 -0.0034714110661 0.0038953407202 0.008262318559
          -0.0013769827783 -0.00676784385 -0.0047224434093 -0.0024298855569 -8.4415667516e-05 0.0034402341116
          -0.0093603096902 0.0022748860065 0.0065772067755 0.0091911125928 -0.008409537375 0.0033132983372
          -0.0016717016697 -0.0035033919849 0.0039116796106 0.008313360624 -0.001380154863 -0.0067656086758
          -0.0047409310937 -0.0024237814359 -8.8230917754e-05 0.0034399922006 -0.0093937646598 0.0022615864873
          0.0065665571019 0.0092170191929 -0.0084673380479 0.0033261957578 -0.0016767808702 -0.0035157026723
          0.0039250547998 0.0083427000791 -0.0013830148382 -0.0067811794579 -0.0047544711269 -0.0024279132485
          -8.7902270025e-05 0.0034497184679 -0.009421095252 0.0022664598655 0.0065826023929 0.0092449858785
          -0.0084958588704 0.003328472143 -0.0016735302052 -0.0035088534933 0.0039353389293 0.008351135999
          -0.0013853521086 -0.0068138404749 -0.0047628767788 -0.0024417852983 -8.3481856564e-05 0.0034690229222
          -0.0094423303381 0.002288879361 0.0066245300695 0.0092750713229 -0.0084958793595 0.0033209847752
          -0.0016623277916 -0.0034839187283 0.0039428849705 0.0083400867879 -0.001386975986 -0.0068618822843
          -0.0047661950812 -0.0024644020014 -7.5059077062e-05 0.0034973127767 -0.0094573888928 0.002327702241
          0.0066904108971 0.0093069765717 -0.0084689874202 0.003304985119 -0.0016437313752 -0.0034425309859
          0.0039481795393 0.008311775513 -0.0013876606245 -0.0069232955575 -0.004764625337 -0.0024945226032
          -6.2798520958e-05 0.0035338443704 -0.0094665065408 0.0023814137094 0.0067778620869 0.0093406420201
          -0.0084176566452 0.0032820261549 -0.0016185452696 -0.0033868222963 0.0039518075064 0.0082689961419
          -0.0013872715645 -0.0069956695661 -0.0047585549764 -0.0025307091419 -4.7001292842e-05 0.0035775913857
          -0.0094701610506 0.0024479767308 0.0068837823346 0.0093759521842 -0.0083451904356 0.0032534815837
          -0.0015880301362 -0.0033196210861 0.0039539514109 0.0082144476473 -0.0013858630555 -0.0070761265233
          -0.0047485977411 -0.0025713983923 -2.8343491067e-05 0.0036268481053 -0.0094689000398 0.0025245482102
          0.0070038097911 0.0094120316207 -0.0082555850968 0.0032213032246 -0.0015533674741 -0.0032439334318
          0.0039552063681 0.0081516848877 -0.001383288647 -0.0071612368338 -0.0047352705151 -0.0026146094315
          -7.342292065e-06 0.003680016147 -0.0094632171094 0.0026081851684 0.007133431267 0.0094484006986
          -0.0081532932818 0.0031878119335 -0.0015157087473 -0.0031629556324 0.0039564296603 0.0080848662183
          -0.0013791960664 -0.0072471150197 -0.0047190058976 -0.0026580132544 1.5606006855e-05 0.003735513892
          -0.0094536347315 0.0026957949158 0.0072677982971 0.0094847427681 -0.008043163456 0.0031553655863
          -0.0014764637453 -0.0030803105328 0.0039583551697 0.0080183073878 -0.001373320003 -0.0073295086622
          -0.0047003719956 -0.0026990752667 3.9931379433e-05 0.0037914514542 -0.0094406865537 0.0027838910464
          0.00740143843 0.0095204776153 -0.0079305516556 0.0031266706064 -0.0014369286364 -0.0029996370431
          0.0039619314484 0.0079567376524 -0.001365239732 -0.0074037327431 -0.0046797827817 -0.0027350452729
          6.5178130171e-05 0.003845940344 -0.0094247525558 0.0028688372113 0.0075286282226 0.0095550781116
          -0.0078209210187 0.00310456031 -0.0013984134421 -0.002924677683 0.0039681643248 0.0079051274806
          -0.0013544780668 -0.0074648698792 -0.0046576294117 -0.0027629646938 9.0938847279e-05 0.0038970571477
          -0.0094062052667 0.0029469062574 0.0076434421353 0.0095880730078 -0.007719934918 0.0030923080631
          -0.0013620582176 -0.0028591353912 0.0039785099216 0.0078690266237 -0.0013401680626 -0.0075075086206
          -0.0046340571716 -0.0027794335037 0.0001170624746 0.0039430949837 -0.0093851834536 0.0030145458877
          0.0077400575392 0.0096193067729 -0.0076333177276 0.0030930249486 -0.001328791026 -0.0028064472135
          0.0039941468276 0.0078536989167 -0.0013216644293 -0.0075265942141 -0.0046092239209 -0.0027812907938
          0.00014341717178 0.0039826314896 -0.0093618659303 0.0030684114899 0.007813019678 0.0096487049013
          -0.0075664403848 0.0031104644295 -0.001300041331 -0.0027708879206 0.0040168892592 0.0078655900434
          -0.0012979604071 -0.0075160553679 -0.0045833508484 -0.0027647223324 0.00016980640066 0.0040134945884
          -0.0093365106732 0.0031043763738 0.007855582051 0.0096761323512 -0.0075258696452 0.0018871079665
          -0.00093160639517 -0.0018797126831 0.0024180274922 0.0049465363845 -0.00088746100664 -0.0046376800165
          -0.0029493556358 -0.0017310522962 -2.990389703e-06 0.0023338838946 -0.005946721416 0.0017118620453
          0.0046305274591 0.0059270518832 -0.0049374955706 -0.00017336962628 -0.0010984962573 -0.00045614212286
          1.4510198525e-05 0.00049418705748 0.00045463771676 0.0011486387812 -0.0030377022922 0.0015467542689
          0.0031720823608 -0.0031159361824 0.0016104566166 0.0032992404886 -0.0037300018594 -0.0038038112689
          -0.0077597666532 -0.0079637197778 0.00137457042 0.0068654878996 0.0045812982135 0.0014130368363
          0.0069657946005 0.0047003952786 0.0025174347684 0.0025676751975 6.5322958108e-05 8.699780301e-05
          -0.003449580865 -0.0034851075616 0.0091279670596 0.0093040112406 -0.0024040574208 -0.0024024713784
          -0.0067204912193 -0.006775605958 -0.0089838383719 -0.0091322278604 0.0078692892566 0.0081235449761
          -0.0031701712869 0.0016457100864 0.0033893107902 -0.0038127547596 -0.0080556664616 0.0014085858129
          0.0068638422526 0.004708187189 0.0025121239014 0.0001041099531 -0.0034289634787 0.0093130767345
          -0.0023160248529 -0.006637442857 -0.0091038672253 0.0082457950339 -0.0032151564956 0.0016773098614
          0.0034613332245 -0.0038372334093 -0.0081538073719 0.0014149800409 0.0068353167735 0.0047424784862
          0.0024893910158 0.00011696290312 -0.0034128620755 0.0093685155734 -0.0022682559211 -0.0065810144879
          -0.0091344192624 0.0083674006164 -0.003250754904 0.0016998262145 0.0035139042884 -0.0038572112098
          -0.0082266787067 0.0014185310574 0.0068134134635 0.0047661340795 0.0024723436218 0.00012502956088
          -0.003402099479 0.0094070965424 -0.0022362009622 -0.0065415385179 -0.0091566126794 0.0084551386535
          -0.0032753092237 0.0017125778832 0.0035451927688 -0.0038742239121 -0.0082783931866 0.0014210267691
          0.0068104905076 0.0047839437611 0.00246555591 0.00012816558592 -0.0034025227651 0.009439879097
          -0.0022235731594 -0.0065315472893 -0.0091831805184 0.0085122780874 -0.0032898441423 0.0017160202842
          0.0035558841191 -0.0038892540615 -0.0083093959838 0.0014222221216 0.0068243886344 0.0047958297655
          0.0024680197239 0.00012618659821 -0.0034139109775 0.0094655388966 -0.0022301003337 -0.0065492470749
          -0.0092128012329 0.0085391448811 -0.0032945857383 0.001710206503 0.0035464409739 -0.0039019810501
          -0.0083201928064 0.0014219821896 0.0068543246016 0.004801586736 0.002479276387 0.00011923458806
          -0.0034356603865 0.0094840219244 -0.0022549931891 -0.0065935314633 -0.0092452066019 0.0085364626721
          -0.0032905151602 0.0016955748433 0.0035180770792 -0.0039129387587 -0.0083125447854 0.0014201825252
          0.0068989144638 0.0048014693893 0.0024984641932 0.00010739595746 -0.003467352828 0.0094956234097
          -0.002297216095 -0.0066627953202 -0.0092804916203 0.0085061257705 -0.0032789544202 0.0016725362511
          0.0034722373821 -0.0039226617664 -0.0082886554301 0.0014164458262 0.0069558955729 0.0047954637557
          0.0025241554249 9.0695306426e-05 -0.0035083096009 0.0095003098249 -0.002355348086 -0.0067546595819
          -0.0093185724691 0.0084503591061 -0.0032612767536 0.0016419980675 0.0034111568239 -0.0039315563627
          -0.0082510868087 0.0014106978197 0.0070228045806 0.0047839875333 0.0025549584534 6.9568952313e-05
          -0.0035573244095 0.0094984676689 -0.0024272007868 -0.0068657943048 -0.0093590607867 0.0083724297583
          -0.0032391534187 0.0016050616978 0.0033375269268 -0.0039401217364 -0.0082029532641 0.0014028804144
          0.0070968689397 0.0047676167451 0.0025892469566 4.4485921535e-05 -0.0036130049266 0.0094908000901
          -0.0025101853535 -0.0069922530092 -0.009401566349 0.0082764057443 -0.0032144198194 0.0015630429843
          0.0032545230351 -0.0039488640614 -0.0081477547064 0.0013929471606 0.0071748206392 0.0047470205463
          0.0026251655072 1.6093028535e-05 -0.0036736680195 0.0094779888168 -0.0026012978051 -0.0071294740774
          -0.009445569478 0.0081669092178 -0.0031890901737 0.0015173535794 0.0031655661296 -0.0039582909085
          -0.0080892648548 0.0013808148215 0.0072528379969 0.0047228154726 0.00266056275 -1.4940242181e-05
          -0.0037373770028 0.0094605982304 -0.0026970987674 -0.0072721871547 -0.0094903158024 0.008048934862
          -0.0031654101331 0.0014694166603 0.0030742546078 -0.0039689978585 -0.0080315489322 0.0013662573183
          0.0073266499676 0.004695547279 0.0026929816231 -4.7973378969e-05 -0.003802095307 0.0094390893355
          -0.002793941414 -0.0074146701954 -0.0095349242911 0.0079277316108 -0.0031458865851 0.0014207495842
          0.0029844657984 -0.0039817625657 -0.0079792123288 0.0013490469428 0.0073917894624 0.0046658492647
          0.0027198393364 -8.237156726e-05 -0.0038657614496 0.0094140833244 -0.0028880478349 -0.0075510777533
          -0.0095787802711 0.0078090154566 -0.0031332243234 0.0013727977639 0.0029000889044 -0.0039974683896
          -0.0079370886087 0.0013288253685 0.0074435421266 0.0046342774294 0.0027383158449 -0.00011759120389
          -0.0039263800718 0.0093861566857 -0.0029756170698 -0.0076754260808 -0.0096212970093 0.007698640693
          -0.0031305179 0.0013269393239 0.0028250617906 -0.00401737215 -0.0079105878249 0.0013050334528
          0.0074767582119 0.0046012508683 0.0027453219518 -0.00015322718536 -0.0039819697849 0.0093557303771
          -0.0030528004281 -0.007781653665 -0.0096621578559 0.0076025873423 -0.003140775254 0.0012841868447
          0.0027629015967 -0.0040425509214 -0.0079048452899 0.0012770576868 0.0074864574708 0.0045669730753
          0.0027377414517 -0.00018907821504 -0.0040310509503 0.0093230223283 -0.003116188338 -0.0078641986474
          -0.0097011700273 0.0075262915343 -0.0031677016523 0.0012459607096 0.0027178621385 -0.0040747849271
          -0.0079262293875 0.0012438708218 0.0074664368294 0.0045316237956 0.0027116839774 -0.00022494708537
          -0.0040713944472 0.009288190864 -0.0031616333872 -0.0079162344337 -0.0097380829975 0.007476253435
          -0.0018565329956 0.00096485117683 0.0019138703356 -0.00238809851 -0.004917842336 0.00092162424698
          0.0046766716987 0.0029852134176 0.0017666785279 3.5169377952e-05 -0.0023039290681 0.0059872744605
          -0.0016800680896 -0.0046006701887 -0.0058982931077 0.0049763871357 0.0002115580719 0.0011389805004
          0.00049485918134 2.3239441362e-05 -0.00045856958604 -0.00041957190842 -0.001118961256 0.00011570896459
          1.4129425836e-05 -8.772687579e-05 -4.0185455873e-05 1.3291738469e-05 6.6145927121e-05 1.2426196918e-05
          6.5592692408e-05 1.1690945939e-05 0.00012543557386 -0.00010320560978 1.0778389878e-05 -4.1300045268e-05
          0.00046800440759 1.0164135347e-05 -0.00044839270413 -0.00023895807681 9.0991416073e-06 0.00025705638109
          8.521557902e-06 0.00025663169799 7.9109940998e-06 0.00046303050476 -0.00044865816017 6.8769841164e-06
          -0.00024069582287 0.0007466620882 6.3697207224e-06 -0.00073441525456 -0.00039533269592 5.5211708059e-06
          0.00040620536311 4.9626705731e-06 0.00040509278188 4.4179450924e-06 0.000744761026 -0.00073708861601
          3.5647587993e-06 -0.00039592961548 0.0009376827511 3.2891234696e-06 -0.00093148421729 -0.0005063933786
          2.6610339319e-06 0.00051165354671 2.2679698759e-06 0.00051113514928 1.878441708e-06 0.00093602348352
          -0.00093310460215 1.2580700286e-06 -0.00050714454846 0.0014380764915 1.1030909945e-06 -0.001436041086
          -0.00077812222298 7.8751423871e-07 0.00077976100147 5.7666613884e-07 0.00077942264033 3.5802719367e-07
          0.0014372139703 -0.0014369424898 1.4457641306e-08 -0.0007784665213 0 0
          0 0 0 0 0 0
          0 0 0 0 0
        </DataArray>
        <DataArray type="Float32" Name="uy" format="ascii" RangeMin="-1.0992000103" RangeMax="0.80359512568">
          0.44758278131 0.47328197956 0.48289710283 0.4420363605 0.44757795334 0.48288804293
          0.47328451276 0.44751915336 0.46739944816 0.45185852051 0.44199845195 0.46740299463
          0.44751867652 0.45185694098 0.46731024981 0.45185229182 0.46730083227 0.45184588432
          0.49813124537 0.46566644311 0.49813124537 0.49809655547 0.49811425805 0.49812096357
          0.46565160155 0.49815440178 0.43858537078 0.7140019536 0.709395051 0.71401542425
          0.65146404505 0.64668118954 0.65149194002 0.70754760504 0.64484137297 0.71000522375
          0.64751803875 0.70069313049 0.69927448034 0.70474380255 0.63796615601 0.63656336069
          0.64203226566 0.69664937258 0.63387477398 0.70492810011 0.64218169451 0.70216888189
          0.63944739103 0.704213202 0.6416336298 0.69663047791 0.63386511803 0.69927620888
          0.63655024767 0.7042260766 0.64164203405 0.71000868082 0.64750540257 0.76196956635
          0.75723451376 0.76199126244 0.75533503294 0.75780642033 0.74847143888 0.74697035551
          0.75248807669 0.74445295334 0.75270819664 0.74992001057 0.75187170506 0.7444332242
          0.74696868658 0.75188589096 0.75780719519 0.79243457317 0.78765815496 0.79245710373
          0.78572952747 0.78817504644 0.77886593342 0.77731060982 0.78285825253 0.77487671375
          0.7831017971 0.78029549122 0.78217124939 0.7748541832 0.77731001377 0.78218740225
          0.78817683458 0.80353271961 0.79871124029 0.80355721712 0.79675894976 0.79919677973
          0.78988987207 0.78829365969 0.79386776686 0.78591310978 0.79412895441 0.79130727053
          0.79313248396 0.78588908911 0.7882925868 0.7931496501 0.79919838905 0.79388278723
          0.78903275728 0.7939080596 0.78706520796 0.78950065374 0.78018260002 0.77856296301
          0.78415900469 0.77620798349 0.78442972898 0.78159558773 0.78339672089 0.77618306875
          0.77856189013 0.78341448307 0.78950244188 0.7627312541 0.75786465406 0.76275670528
          0.75589001179 0.75833147764 0.74898838997 0.74736124277 0.75297445059 0.74500399828
          0.75324726105 0.75040429831 0.75220644474 0.74497890472 0.74736016989 0.75222432613
          0.75833320618 0.70992028713 0.70504963398 0.70994526148 0.70307564735 0.70553040504
          0.69614899158 0.69453001022 0.70015585423 0.69214379787 0.70042347908 0.69757479429
          0.69940245152 0.69211918116 0.69452893734 0.69941997528 0.70553207397 0.63586753607
          0.63100445271 0.63589137793 0.62903833389 0.63151323795 0.62208139896 0.62048512697
          0.62611919641 0.61804521084 0.62637490034 0.62352371216 0.62539941072 0.61802172661
          0.62048411369 0.62541615963 0.63151484728 0.54152584076 0.536680758 0.54154807329
          0.53472912312 0.53723019361 0.52773737907 0.52617686987 0.53181505203 0.52366125584
          0.53205281496 0.5292019248 0.53114581108 0.52363938093 0.52617591619 0.53116136789
          0.53723168373 0.42832651734 0.42350831628 0.4283465147 0.42157673836 0.42410901189
          0.41454640031 0.41303262115 0.41867145896 0.41042265296 0.4188862443 0.41603806615
          0.41806715727 0.41040292382 0.41303175688 0.41808125377 0.42411032319 0.29810631275
          0.29332229495 0.29812377691 0.29141524434 0.2939825654 0.28434383869 0.28288561106
          0.28852194548 0.28016680479 0.28870972991 0.28586632013 0.28799387813 0.28014957905
          0.28288480639 0.28800618649 0.29398372769 0.15302167833 0.14827716351 0.15303635597
          0.14639787376 0.14900268614 0.13928414881 0.13788756728 0.14351892471 0.13505026698
          0.14367689192 0.14083993435 0.14307487011 0.13503576815 0.13788689673 0.14308524132
          0.14900365472 -0.0045505706221 -0.0092525035143 -0.0045388252474 -0.011102308519 -0.008459049277
          -0.018258238211 -0.019590070471 -0.013965472579 -0.022550335154 -0.013838647865 -0.016668114811
          -0.014321659692 -0.022561945021 -0.019590608776 -0.014313347638 -0.0084582800046 -0.17212404311
          -0.17678271234 -0.17211522162 -0.17860284448 -0.17592188716 -0.18579930067 -0.18706646562
          -0.18144974113 -0.19014839828 -0.18135391176 -0.18417537212 -0.18171848357 -0.19015714526
          -0.18706691265 -0.18171223998 -0.17592130601 -0.34722316265 -0.35184034705 -0.34721708298
          -0.35363224149 -0.35091617703 -0.36086580157 -0.36207184196 -0.35646340251 -0.36526799202
          -0.35639676452 -0.35921025276 -0.35664969683 -0.36527401209 -0.36207216978 -0.35664534569
          -0.3509157598 -0.52751129866 -0.53209149837 -0.52750760317 -0.53385829926 -0.53111147881
          -0.54112380743 -0.542275846 -0.53667527437 -0.54557228088 -0.53663438559 -0.53944057226
          -0.53678882122 -0.54557591677 -0.54227602482 -0.53678619862 -0.53111124039 -0.710924685
          -0.71547496319 -0.71092295647 -0.71722173691 -0.71445065737 -0.72451215982 -0.72562104464
          -0.72002726793 -0.72899729013 -0.72000682354 -0.72280704975 -0.72008275986 -0.72899901867
          -0.72562122345 -0.72008150816 -0.71445047855 -0.8958093524 -0.90033978224 -0.89580887556
          -0.9020730257 -0.8992857933 -0.9093798399 -0.91045987606 -0.90487074852 -0.91388905048
          -0.90486419201 -0.90766012669 -0.90488761663 -0.91388946772 -0.91045993567 -0.90488731861
          -0.8992857337 -1.0810632706 -1.0855866671 -1.0810632706 -1.087315321 -1.0845224857
          -1.094627738 -1.0956977606 -1.0901104212 -1.0991454124 -1.0901083946 -1.092903018
          -1.0901138783 -1.0991454124 -1.0956978798 -1.0901136398 -1.0845224857 0.53613078594
          0.54676538706 0.53615689278 0.55085766315 0.54413944483 0.56888234615 0.57129263878
          0.55762767792 0.5801153779 0.55769944191 0.56453967094 0.55746430159 0.58011740446
          0.57127928734 0.55746006966 0.54410398006 0.52231532335 0.52819001675 0.5463424921
          0.49809753895 0.51313477755 0.54635173082 0.52820259333 0.65149569511 0.64670920372
          0.65152341127 0.71403634548 0.70942652225 0.71404987574 0.64486891031 0.70757776499
          0.64754730463 0.71003729105 0.63798856735 0.63658499718 0.64205741882 0.70071846247
          0.69929897785 0.70477217436 0.63389408588 0.69667166471 0.64220696688 0.70495647192
          0.63947111368 0.70219534636 0.64165776968 0.70424175262 0.63388442993 0.69665288925
          0.63657170534 0.6993008852 0.64166897535 0.70425409079 0.647534132 0.71004086733
          0.76200598478 0.75726789236 0.76202774048 0.75536727905 0.75784045458 0.74849873781
          0.74699687958 0.75251841545 0.74447715282 0.7527385354 0.74994844198 0.75190192461
          0.74445748329 0.74699521065 0.75191622972 0.75784128904 0.79247194529 0.78769260645
          0.79249447584 0.78576272726 0.78821015358 0.77889436483 0.77733826637 0.78288966417
          0.77490210533 0.78313320875 0.78032505512 0.78220266104 0.77487963438 0.77733778954
          0.78221875429 0.78821200132 0.80357056856 0.79874616861 0.80359512568 0.79679274559
          0.7992323637 0.78991895914 0.7883220315 0.79389977455 0.78593927622 0.79416102171
          0.79133749008 0.79316449165 0.78591531515 0.78832101822 0.79318165779 0.79923403263
          0.7939208746 0.78906792402 0.79394620657 0.78709924221 0.78953647614 0.7802118659
          0.77859151363 0.7841912508 0.77623438835 0.7844619751 0.7816260457 0.78342890739
          0.77620953321 0.77859055996 0.78344672918 0.78953826427 0.76276874542 0.75789928436
          0.76279425621 0.75592344999 0.75836670399 0.74901717901 0.74738925695 0.75300616026
          0.7450298667 0.75327897072 0.75043416023 0.7522380352 0.74500483274 0.74738824368
          0.7522559762 0.75836849213 0.70995593071 0.70508253574 0.70998096466 0.70310741663
          0.70556384325 0.69617623091 0.69455647469 0.70018589497 0.69216823578 0.70045351982
          0.6976031065 0.69943243265 0.69214367867 0.69455552101 0.69945001602 0.70556563139
          0.63590043783 0.63103455305 0.63592433929 0.62906736135 0.63154393435 0.62210595608
          0.62050890923 0.62614649534 0.61806696653 0.62640219927 0.62354934216 0.62542665005
          0.61804354191 0.62050801516 0.62544345856 0.63154560328 0.54155498743 0.53670716286
          0.54157727957 0.53475439548 0.53725713491 0.5277581811 0.52619683743 0.53183853626
          0.52367919683 0.5320764184 0.52922379971 0.53116929531 0.52365738153 0.52619600296
          0.53118491173 0.53725868464 0.42835053802 0.42352962494 0.42837059498 0.42159700394
          0.42413088679 0.41456228495 0.41304779053 0.41869002581 0.41043582559 0.41890484095
          0.41605499387 0.41808566451 0.41041615605 0.41304704547 0.41809982061 0.4241322875
          0.29812422395 0.29333749413 0.29814171791 0.29142940044 0.29399836063 0.28435358405
          0.28289467096 0.28853443265 0.28017386794 0.28872221708 0.28587716818 0.2880063355
          0.2801567018 0.28289398551 0.28801867366 0.29399958253 0.15303297341 0.14828564227
          0.15304768085 0.14640523493 0.14901177585 0.13928693533 0.13788963854 0.14352455735
          0.13505019248 0.14368252456 0.14084382355 0.14308048785 0.13503576815 0.1378890574
          0.14309084415 0.14901281893 -0.0045461077243 -0.0092510236427 -0.0045343376696 -0.011101982556
          -0.0084568941966 -0.018262734637 -0.019595297053 -0.013966991566 -0.022557813674 -0.013840164058
          -0.016671463847 -0.014323189855 -0.022569384426 -0.019595781341 -0.014314868487 -0.0084560830146
          -0.17212678492 -0.17678849399 -0.17211793363 -0.17860978842 -0.17592695355 -0.1858111769
          -0.1870791018 -0.18145857751 -0.19016332924 -0.18136274815 -0.18418607116 -0.18172734976
          -0.19017204642 -0.18707947433 -0.18172106147 -0.17592635751 -0.34723350406 -0.3518537879
          -0.34722742438 -0.35364687443 -0.35092887282 -0.3608854413 -0.36209225655 -0.3564799428
          -0.36529073119 -0.35641330481 -0.3592287302 -0.35666626692 -0.36529672146 -0.36209252477
          -0.35666191578 -0.35092848539 -0.52752965689 -0.53211295605 -0.5275259614 -0.53388094902
          -0.53113222122 -0.54115158319 -0.54230433702 -0.53669989109 -0.54560321569 -0.53665906191
          -0.53946709633 -0.53681343794 -0.54560679197 -0.54230451584 -0.53681081533 -0.5311319828
          -0.71095097065 -0.71550452709 -0.71094930172 -0.7172524929 -0.71447938681 -0.72454804182
          -0.72565770149 -0.72005993128 -0.72903639078 -0.72003954649 -0.72284168005 -0.72011548281
          -0.72903805971 -0.7256578207 -0.7201141715 -0.7144792676 -0.89584338665 -0.90037703514
          -0.89584290981 -0.9021115303 -0.89932227135 -0.9094235301 -0.91050434113 -0.90491122007
          -0.91393595934 -0.90490460396 -0.90770256519 -0.90492808819 -0.91393643618 -0.91050440073
          -0.90492773056 -0.89932221174 -1.0811049938 -1.085631609 -1.0811049938 -1.0873615742
          -1.0845667124 -1.0946791172 -1.0957499743 -1.0901585817 -1.0992000103 -1.0901565552
          -1.0929532051 -1.0901620388 -1.0992000103 -1.0957500935 -1.0901618004 -1.0845665932
          0.53615051508 0.54678553343 0.53617745638 0.55087465048 0.54415750504 0.56889766455
          0.57130795717 0.55764573812 0.58012956381 0.55771684647 0.56455487013 0.55748647451
          0.58013176918 0.57129490376 0.55747061968 0.54412448406 0.52232199907 0.52819341421
          0.54634827375 0.49810069799 0.51314419508 0.54635620117 0.52820754051 0.32788532972
          0.32797551155 0.32788744569 0.32770544291 0.32783642411 0.32770133018 0.32780951262
          0.32769078016 0.3278298676 0.32789367437 0.32789260149 0.32798361778 0.32768768072
          0.22127737105 0.22149434686 0.2212792933 0.22078211606 0.22103394568 0.22077918053
          0.22094631195 0.22078512609 0.22103500366 0.22127749026 0.22127528489 0.2214923352
          0.22078193724 0.1295787394 0.12995687127 0.12958031893 0.12874747813 0.12917196751
          0.12874481082 0.12902714312 0.12874704599 0.12917195261 0.12958098948 0.12957936525
          0.12995746732 0.12874436378 0.059626903385 0.060077905655 0.059628024697 0.058569259942
          0.059127714485 0.058567393571 0.058937370777 0.05856936425 0.059127699584 0.059627987444
          0.059626739472 0.060077849776 0.058567427099 0.016357265413 0.017107406631 0.016357786953
          0.014729954302 0.015517860651 0.014728998765 0.015222570859 0.014730019495 0.015517890453
          0.016357934102 0.016357218847 0.017107460648 0.014728950337 0 0
          0 0 0 0 0 0
          0 0 0 0 0
        </DataArray>
        <DataArray type="Float32" Name="uz" format="ascii" RangeMin="-0.10416219383" RangeMax="0.10424009711">
          0.01515111886 -0.0083886813372 0.021837033331 0.018896460533 0.015148979612 0.021837903187
          -0.0083990832791 -0.01515197847 -0.0479782857 -0.039709933102 -0.018912466243 -0.047968294472
          -0.015158388764 -0.039708580822 0.048023805022 0.039697695524 0.048028793186 0.039693638682
          -0.026745775715 -0.048885256052 -0.026738204062 -0.053594373167 -0.053580176085 0.053539786488
          0.04890743643 0.053526818752 1.9507917386e-05 0.0096247652546 -0.0047419071198 -0.0095419613644
          0.011840105988 -0.0058458019048 -0.011762931012 0.012550978921 0.015472108498 0.025130387396
          0.031065447256 -0.0047464924864 -0.02503855899 -0.015433565713 -0.0059345285408 -0.031325023621
          -0.01910902001 -0.0095453131944 -0.012030697428 3.36773046e-05 3.3605156204e-05 0.012537364848
          0.015590945259 -0.030984342098 -0.038481257856 0.0095914481208 0.012060617097 0.025103116408
          0.03140514344 0.031038021669 0.038513649255 -0.02504209429 -0.030945770442 0.0068238261156
          -0.0033422510605 -0.0067462879233 0.0088831512257 0.017804237083 -0.0033488916233 -0.01771555841
          -0.010900610127 -0.0067562647164 3.3548712963e-05 0.0088769635186 -0.021917009726 0.0068039265461
          0.017784617841 0.02197067067 -0.017716186121 0.0036257535685 -0.0017498985399 -0.0035506668501
          0.0047115669586 0.009435672313 -0.00175526354 -0.0093641802669 -0.0057468116283 -0.0035631698556
          3.3666663512e-05 0.0047085746191 -0.011586708017 0.0036169579253 0.009432869032 0.011644483544
          -0.0093544237316 0.00014478446974 -1.3696539099e-05 -7.3115916166e-05 0.0001629441249 0.00032329291571
          -1.6891579435e-05 -0.00025029180688 -0.00012491609959 -7.8956007201e-05 3.3715070458e-05 0.00016118709755
          -0.00032135957736 0.00013836982544 0.00031881290488 0.00038262689486 -0.00024694408057 -0.0035217034165
          0.0018145238282 0.0035902964883 -0.004626837559 -0.009274341166 0.0018136660801 0.0093440031633
          0.0057950187474 0.003588424297 3.3775460906e-05 -0.004627504386 0.011539902538 -0.0035235690884
          -0.0092754364014 -0.011474999599 0.0093451421708 -0.0072677433491 0.0036827025469 0.0073330234736
          -0.009521192871 -0.019079925492 0.003683934221 0.019146865234 0.011843902059 0.0073355315253
          3.3793425246e-05 -0.009520384483 0.02365866676 -0.0072651980445 -0.019078349695 -0.02359033376
          0.019145337865 -0.010991515592 0.0055398326367 0.01105344668 -0.014386772178 -0.028827164322
          0.0055432617664 0.028891511261 0.017857274041 0.011060303077 3.3789365261e-05 -0.014384659007
          0.035705260932 -0.010984647088 -0.028822919354 -0.035633709282 0.028887275606 -0.014596722089