<VTKFile type="UnstructuredGrid" version="1.0" byte_order="LittleEndian" header_type="UInt64">
  <UnstructuredGrid>
    <Piece NumberOfPoints="791" NumberOfCells="973">
      <PointData>
        <DataArray type="Float32" Name="ux" format="ascii" RangeMin="-1.78414011" RangeMax="1.5602777004">
          0.20245321095 0.51511102915 -0.2756370604 -0.28359055519 0.49633774161 0.41770163178
          -0.30986189842 -0.059759050608 1.3841012716 0.39798182249 -0.87338113785 0.077323421836
          -1.0570375919 0.048169147223 0.88678723574 -0.081224694848 0.5378690362 1.2041311264
          -0.65555727482 -0.38013145328 -0.89335292578 0.1174614206 -0.76117765903 1.1060959101
          0.22964954376 0.65420746803 -0.76737678051 -0.64515072107 0.61784702539 -0.66160297394
          -0.37038961053 0.03822163865 0.79600244761 0.79641163349 0.52245777845 0.22186794877
          -0.5102776289 0.099820382893 -0.11734123528 -0.68289792538 -0.65992414951 0.99641060829
          -0.094857797027 -0.35889393091 -1.1932739019 1.1284507513 -1.4122648239 -0.95989251137
          0.044915102422 -0.044954854995 -0.26449856162 0.36896160245 0.67523467541 -0.61362469196
          -0.12490850687 0.034823637456 -0.71158593893 -0.072297886014 -1.5961177349 1.0359662771
          -0.062445469201 -0.1572060734 -0.4942805171 0.6234267354 0.56017291546 0.24314713478
          -0.0076168612577 -0.037003386766 -0.056322149932 0.17851880193 -1.3220061064 -0.093566529453
          0.170259431 0.07133486867 1.3044205904 -0.50878995657 0.41701957583 -0.096420221031
          0.13348719478 -0.54063653946 -0.00068383151665 -0.054571986198 0.976529181 0.083086252213
          1.2591805458 1.0626027584 0.96386009455 0.36224406958 0.19119352102 0.091942332685
          -0.71919858456 0.72946768999 0.29864233732 -0.10201370716 -0.64463686943 -0.74247694016
          0.19804657996 1.2798625231 0.89676469564 1.4399775267 -0.75057202578 -0.76831066608
          -0.017135519534 0.59340238571 0.090199686587 -0.5505746007 0.44530367851 -0.49033594131
          0.045763451606 -0.25782629848 -0.19036193192 -0.55237573385 0.3921097517 -0.37060290575
          -0.11178738624 -0.091523207724 0.16794931889 0.54214942455 0.56450873613 -0.65968281031
          0.42701077461 -0.019021317363 -0.62076377869 -0.24382227659 0.43956404924 0.21372538805
          -0.95328831673 0.2490593344 0.30743682384 0.32207739353 0.37214651704 -0.2645034194
          -0.87142050266 -0.10885319859 -0.89838516712 -0.17244645953 1.2248668671 -0.32043620944
          0.22844664752 0.045348219573 -0.34111511707 -0.055187083781 1.2706649303 0.57772898674
          -0.45620602369 -0.24692207575 -0.056048750877 0.31819796562 0.4820946753 0.080314233899
          0.42767366767 -0.41246467829 -0.93832850456 0.62153708935 0.85237419605 0.19864083827
          0.17460237443 0.28403922915 0.1010234803 0.14480756223 -0.17934146523 -0.46211251616
          -0.1701669395 -0.35864970088 0.085994765162 -0.31488293409 0.38654392958 -0.0059874011204
          -0.33133846521 -0.86884331703 1.5602777004 0.15711380541 0.013097007759 -0.69850283861
          -0.14828024805 -1.5149737597 -0.61006295681 -0.29485651851 0.54303079844 0.41952052712
          -0.22040311992 0.30416682363 -0.55540877581 -0.83109658957 -0.37148091197 -0.52146530151
          0.011684115976 -0.3455426693 -0.38254499435 -1.0939229727 -0.95385199785 0.3937522769
          -0.46112394333 0.35424888134 -0.49820613861 0.93573504686 -0.022218696773 0.14563721418
          -0.83066803217 -1.144423604 -0.67075037956 -0.57429689169 -0.68844109774 0.10134007037
          -0.15973421931 1.0196675062 -0.37776207924 0.85802638531 0.13424567878 -1.018238306
          1.1593503952 0.4146104753 1.1928011179 0.0043784463778 0.28813099861 -0.24472732842
          0.41084977984 -0.76321232319 -0.78678494692 -0.20717218518 -0.33151715994 -0.90844541788
          0.34522560239 -0.4141870141 0.36760929227 -0.78029847145 -0.27017310262 0.16784599423
          0.34792393446 0.78075683117 -0.36934012175 -0.60799401999 -0.018638892099 -0.235103935
          -0.59511435032 -0.35934942961 0.13918067515 -0.80972224474 0.73014307022 -0.97953432798
          -0.41358229518 0.33301025629 -0.46463990211 0.30665865541 0.93350839615 -0.20214520395
          0.22191499174 1.0570371151 0.3105879724 -0.96075344086 -0.1952675283 -0.92288684845
          0.09798514843 0.043068800122 0.12205190957 -0.47591158748 -0.64110291004 0.2286221385
          0.93235766888 0.10117229819 0.069211833179 -0.71441346407 0.58630138636 -1.1524646282
          0.20773603022 -0.29485070705 -0.16458420455 -0.30431312323 -0.39438736439 -0.38909131289
          -0.39027827978 0.28643593192 0.050885111094 0.30498701334 0.60507273674 -0.092059291899
          0.31057092547 -0.20962917805 0.51476895809 0.51622629166 -1.2968658209 0.74694335461
          0.23843504488 -0.38792294264 0.27612322569 -0.20164570212 0.66924059391 -0.51915514469
          0.82351362705 -0.95937013626 -0.39306512475 0.29584431648 -0.46279251575 -0.22134512663
          -0.58552765846 -0.24324665964 0.64823698997 0.45511123538 -0.74369329214 -0.27229884267
          1.0513201952 0.47737258673 0.51334023476 -0.41227811575 -0.76616996527 -1.0790393353
          -0.84848719835 -0.041131913662 0.2839885354 -0.18018473685 0.32052373886 0.07353772223
          -0.41987934709 0.26509490609 0.23150247335 0.63144809008 0.30150872469 -0.50076818466
          -1.034706831 0.47982689738 1.0418524742 -0.22435459495 0.74055820704 0.96800857782
          0.55026507378 -0.18222051859 0.39740779996 -1.0646209717 -0.97619634867 0.51843112707
          1.0287522078 0.4108505249 -0.0460081622 -0.22962792218 0.87111401558 0.38004150987
          0.78946894407 -0.78895688057 -0.94068592787 0.49328827858 0.35842016339 0.29529359937
          -0.91636222601 1.1836435795 -0.22851189971 1.1425558329 -0.1078023091 -0.20441752672
          -0.97630506754 -0.65440356731 -0.080839253962 -0.44472977519 -0.33079880476 0.085397563875
          -0.24897502363 0.21313197911 -1.0465701818 0.32646682858 -0.51537567377 0.17673371732
          -0.75597441196 -0.72220957279 0.059036988765 0.4146604836 0.027614783496 1.0229052305
          -0.032642375678 -0.21712729335 -0.04530698061 -0.23622067273 -0.45166969299 -0.038901112974
          0.55352586508 1.0713722706 -0.050611339509 -0.09552950412 -1.251327157 -0.54588919878
          -0.31922963262 -0.37286138535 -0.78685921431 -0.28386572003 1.0640333891 1.4754849672
          0.45943894982 0.0014156192774 0.7319919467 0.14470845461 -0.016530014575 -0.028851648793
          -0.33125159144 -0.30184206367 0.45716929436 0.27049610019 0.1224937588 0.19668455422
          0.42710369825 0.14461942017 -0.63143742085 0.36922606826 0.2542091012 0.099888794124
          -0.28851816058 0.24056704342 -0.66081261635 -0.29947215319 -1.0929617882 0.063248455524
          0.7963796854 -0.22837598622 -0.46094685793 -0.26369217038 0.24274633825 -0.084951534867
          -0.12244088948 0.092411890626 0.032698772848 0.5435256362 0.02085393481 1.2971084118
          -0.71339678764 -0.24474912882 -0.81646865606 -0.01693527773 0.85863667727 0.030431590974
          0.5099028945 0.55224305391 -0.88457483053 1.1514334679 -0.51986175776 -0.2532311976
          -0.94713580608 -0.42678028345 1.4474234581 0.018953843042 -0.0073300777003 -0.019731707871
          0.086888991296 0.18593411148 -0.26700311899 0.3611073494 -0.67037475109 -0.13478410244
          1.1879423857 0.83898234367 0.52155208588 -0.28395774961 -0.32945278287 -0.8346170783
          -0.22404181957 0.22668451071 -0.38838636875 0.18891495466 0.72819697857 -0.31421396136
          -0.25931993127 0.018212651834 -0.51465630531 0.10006604344 -0.4766458571 0.32598295808
          1.3136975765 0.092074267566 0.39652344584 -0.14593429863 1.4558998346 0.17051409185
          0.17525719106 0.049699932337 0.70091062784 -0.462870121 0.98542702198 0.33206725121
          0.31731119752 -0.97510123253 0.49122527242 -0.54221022129 0.31051293015 -0.26886248589
          -0.43152031302 -0.33771401644 0.40117233992 -0.28803899884 -0.55710464716 0.31574839354
          -0.91888219118 -0.18014492095 -0.92325526476 -0.35833996534 0.53537487984 -0.79133492708
          -0.36707496643 -0.31997472048 -0.27507337928 0.40582448244 0.30008760095 0.20007456839
          -0.050784114748 0.39208355546 0.3684630394 -0.18213322759 -0.02521003224 -0.10143648088
          -0.016250681132 -0.88614743948 0.369931072 0.33489155769 1.2340735197 -0.012999287806
          -0.54106605053 0.80032783747 -0.73180115223 -0.092164359987 0.0039497697726 0.5668593049
          -0.35237506032 -0.39647614956 -0.0086081167683 1.3492604494 0.46208250523 1.3889584541
          -0.35681670904 -0.084500074387 -1.4484632015 0.30322873592 0.43380343914 0.87125605345
          0.10387760401 -0.72092360258 0.081821724772 0.76017582417 0.38274285197 0.23044241965
          -0.073465153575 0.6458594799 0.35389700532 -0.32178196311 -0.9149941802 1.0686246157
          0.18696281314 -0.39226549864 -0.21544352174 0.59571439028 -0.58654975891 -0.86615115404
          -0.37652146816 -0.06035489589 -0.15867502987 0.044797811657 -0.42447760701 0.20829093456
          -0.21021653712 0.36009705067 0.61798864603 0.078791230917 -0.54371166229 0.19701901078
          0.04727461189 0.50915879011 0.069334819913 0.2179749608 0.52291119099 0.33754813671
          0.31585165858 0.26308774948 -0.14359137416 -0.39607328176 -0.19769120216 -0.21976599097
          0.89962643385 -0.095985069871 -0.14287573099 1.4934835434 0.66455537081 0.040743716061
          0.62517595291 0.44492301345 0.12232230604 0.28616079688 -1.0888446569 0.080892629921
          -0.39100986719 -0.94206261635 -0.65617847443 -0.15372598171 -0.5315464735 -0.0031809064094
          0.44887256622 -0.067543409765 -0.11411695182 0.057388268411 0.24996002018 1.3092086315
          -0.29138121009 -0.92057257891 0.29806515574 0.9011297822 0.047869261354 -0.22830523551
          -0.79212975502 0.75949835777 -0.27869585156 0.63189703226 -0.77285820246 -0.29009392858
          -0.34430679679 0.52692437172 0.64532715082 -0.047579076141 0.1879940033 -0.27454400063
          -0.58327955008 -0.58080041409 -0.7088573575 -0.32463663816 -0.82461386919 0.5845516324
          0.090774931014 -0.054122388363 -0.13660562038 -0.35599598289 0.3458878994 0.57062524557
          -1.78414011 -0.20567712188 -0.17839694023 0.40624338388 -0.017316525802 -0.29405885935
          -0.35001471639 -1.2371418476 -0.9970086813 0.080080509186 -0.16521136463 -0.52343070507
          0.95869362354 0.30781635642 0.036344524473 0.77814185619 0.60605955124 -0.0299006477
          0.17435277998 -0.557302773 0.17968794703 -0.44665026665 -0.93876725435 0.94965922832
          0.18272560835 0.1960542798 -0.55730980635 -0.39115610719 0.73273289204 0.85999333858
          -1.1537595987 -0.10399200022 -0.47611492872 -0.3784866333 -0.23214942217 -0.5267419219
          -0.49710446596 0.3699631989 -0.2733284235 -0.29127642512 -0.1032274738 0.51527965069
          0.0047648618929 -0.25197482109 0.13212484121 -0.58545714617 -0.070545867085 -0.74228090048
          1.0821830034 0.034669063985 -0.53948897123 0.34261649847 1.1181373596 0.094424821436
          -0.2485126853 0.04002744332 0.5621907711 1.1173163652 0.3615553081 0.082109823823
          -0.6227773428 0.33090573549 -0.68609005213 -0.060851715505 -0.23708274961 1.5048018694
          0.9594938755 -1.3723877668 0.079986035824 0.66210317612 0.55456507206 -0.50143569708
          0.068197198212 -0.34583380818 -0.6466999054 -0.80807209015 0.10005120188 0.12272597104
          0.98959934711 1.2459977865 0.41663280129 -0.62306916714 0.44398617744 0.036406356841
          0.57576060295 0.4969201982 -0.19575162232 -0.099572651088 -0.18053469062 -0.022191299126
          0.31194153428 0.093256406486 0.39412218332 0.041148282588 0.67023020983 -0.68071067333
          -0.20164848864 0.27686959505 -0.43992710114 0.013589904644 0.39997240901 -0.81398320198
          0.35376915336 0.02905895561 0.27491778135 0.49261745811 0.69715178013 0.32188132405
          0.22069591284 -0.60126656294 -1.3023327589 -0.22654268146 -0.29169613123 -0.23130610585
          0.23336064816 -0.45087012649 0.25800225139 1.3285769224 -0.50687640905 -0.28151473403
          0.21881763637 0.29852020741 0.22222112119 0.77940839529 0.27600088716 -0.046176601201
          0.1303935945 0.36889189482 -0.092873603106 -0.76432752609 0.27692520618 -0.27902546525
          0.35837209225 -0.67728364468 -0.46584394574 0.1877682358 -0.8524839282 0.64190071821
          -0.01432777755 -0.0087200906128 1.0284007788 0.37284871936 -0.04805033654 0.17174457014
          0.65173625946 0.32484999299 -0.0022216748912 0.43462115526 0.090768381953 -0.22326651216
          0.089253373444 -0.20386429131 0.62712442875 0.67272770405 0 0
          0 0 0 0 0 0
          0 0 0 0 0
        </DataArray>
        <DataArray type="Float32" Name="uy" format="ascii" RangeMin="-1.5544825792" RangeMax="1.8906321526">
          0.37421345711 0.99000608921 -0.17361830175 0.30197939277 0.16009941697 0.4634398818
          0.0074272300117 0.49160882831 0.35042157769 -0.061160281301 -0.7143805027 -0.82614439726
          0.14213828743 -0.20999191701 1.2180876732 0.28246277571 0.31918647885 -0.84144163132
          -0.36466246843 0.64657473564 -0.51833891869 0.23447713256 0.54361820221 -0.55642193556
          0.50950163603 -0.10617257655 0.11754205078 0.25083750486 0.070093639195 0.070583701134
          0.63477766514 0.13865049183 0.75822377205 -0.35414782166 0.16475278139 0.81375259161
          -0.17169968784 0.33711564541 -0.94286394119 0.3787394762 -0.23245592415 -1.2608119249
          0.13471214473 0.80343347788 -0.26647859812 -0.38579440117 0.2407361269 0.32809886336
          0.34889268875 -0.35359373689 0.32849726081 -0.40103036165 -0.23725619912 0.54746603966
          0.81819188595 1.0764356852 -0.55208057165 0.92010062933 0.10051453114 0.6015702486
          0.73842924833 -0.23501865566 -0.031780283898 -0.31405043602 -0.14911735058 -0.2837857604
          -0.31132900715 -0.3014690578 0.031801916659 -0.271889925 0.019607437775 -0.54512649775
          -0.24074284732 -0.77149957418 0.35494163632 -1.1166161299 0.26957464218 0.37044578791
          -0.33372080326 -0.31433787942 -0.2657790184 -0.31561595201 -0.17003831267 -0.43975308537
          -0.12448792905 0.43518072367 0.20976547897 0.45935678482 -0.33163744211 0.074526078999
          -0.87273663282 -0.2303237021 -0.2040631026 -0.47000238299 -0.73198217154 0.73198670149
          -0.66802859306 0.38745257258 -0.20842148364 0.0078646177426 -0.57968115807 -0.58567506075
          -0.68653762341 -1.018327713 -0.45158323646 0.4020934999 -1.0411792994 0.16246189177
          0.32588511705 -0.39444422722 0.24253720045 -0.033152647316 -0.005288079381 -0.097029827535
          -0.43287396431 0.10252964497 0.66120767593 -0.49618124962 0.16493758559 1.087443471
          0.40988880396 -0.60650515556 -0.25220286846 0.38148605824 0.64806962013 0.35932898521
          0.077594667673 0.57948642969 0.51086956263 -0.02870766446 0.31241697073 0.26784169674
          0.32408151031 -0.39408519864 -0.035037554801 -0.76387780905 0.44724217057 -0.64468634129
          0.024062521756 0.89209461212 -1.1613305807 1.0416989326 -0.77096945047 -0.17829836905
          0.39695551991 0.46281349659 -0.2517298162 0.39702421427 -0.30533012748 -0.34239345789
          -0.11187841743 -0.173385337 0.62363141775 0.049608707428 -0.51510286331 0.33968430758
          0.084047034383 0.074604943395 0.23662236333 -0.46797794104 0.53139173985 -0.28684020042
          -0.66695898771 0.34448948503 -0.1799890399 -0.48149439692 0.11908045411 -0.34089925885
          -0.10290899873 -0.73889768124 0.059698924422 -1.0129237175 0.93481117487 0.2523792088
          0.11362344772 1.8906321526 -0.34958651662 1.1021457911 0.5786755085 1.1209505796
          0.98363018036 0.071529753506 -0.5224404335 0.29245680571 -0.077860295773 -0.65594911575
          -0.047621455044 0.13025975227 0.1119043082 -0.1575782001 0.47794169188 0.28048822284
          0.63983917236 -0.15348978341 -0.98001241684 -0.31885427237 0.55765330791 -0.25733244419
          -0.53483140469 -0.52025997639 0.61792492867 -0.52093660831 -1.1485249996 0.18963767588
          -1.019423008 0.15811942518 -1.4030821323 -0.60673850775 0.34210023284 -0.77934581041
          0.21644726396 0.28568843007 -0.50169885159 0.55689692497 0.77611225843 0.057804521173
          -0.45278263092 -0.50604730844 0.16449701786 -0.48782375455 0.78586030006 0.38949355483
          -0.54113996029 -0.74731701612 -0.99956059456 -0.33840641379 -0.33844774961 0.57908713818
          -0.78271323442 -0.49841278791 0.14184089005 1.0728340149 -0.54868620634 0.82215940952
          0.36250731349 -0.45327153802 -0.34134525061 -0.107545048 -0.41364756227 -0.030570095405
          0.53153288364 0.43703985214 -0.32001796365 -0.73046422005 0.23365516961 0.30112633109
          0.7399443984 -0.0030168190133 0.95179283619 -0.20963451266 0.1070836857 0.8278260231
          -0.00010135951015 -0.13099081814 0.26109761 0.12619766593 0.16090616584 -0.70489042997
          -0.76986908913 0.13371632993 0.18604940176 0.62355899811 1.0609563589 -0.56927746534
          1.4017454386 -0.62224447727 -0.94253021479 -0.082459524274 0.464753896 0.51995521784
          0.68670386076 0.28931874037 -0.24344962835 0.26184153557 0.83688217402 -0.58903419971
          0.46145957708 0.31372192502 -0.18407607079 -0.64483380318 -0.33033198118 -0.10562678427
          0.19652114809 0.35177734494 -0.59025371075 0.97599691153 -0.2135694325 -0.28894600272
          0.76620942354 1.2655602694 0.29299530387 -0.56409049034 -0.47298133373 0.030921313912
          -0.04164353013 -0.19673286378 0.7391474843 0.35062128305 -0.27096256614 0.31777080894
          0.43012589216 -0.77059549093 0.074524343014 0.4614392519 -0.42625808716 -0.31772601604
          -0.06172067672 0.53338891268 -0.059375632554 0.30821275711 0.45416343212 -0.5703446269
          0.34781098366 0.16761928797 0.51470136642 0.35928717256 -0.30985057354 1.3697735071
          -0.35348081589 -0.60477972031 -0.71454882622 0.75918769836 -0.38078558445 0.23212279379
          0.82040029764 0.27396741509 0.27378562093 0.23578068614 -0.2533069849 -0.4931435287
          -0.31164583564 -0.020101083443 -0.60558742285 -1.171792388 -0.51597607136 0.31694698334
          1.1361473799 0.55861216784 0.059318833053 0.43945422769 -1.2285552025 0.32804447412
          -0.50728285313 -0.074900195003 0.56495684385 -0.25847437978 0.22892835736 0.75503718853
          -0.1380699873 -0.88199460506 0.15328659117 0.37360978127 -1.0017240047 0.17032295465
          -0.4957049489 0.44906201959 0.066422641277 -0.81802016497 1.1250506639 -0.24522106349
          -0.8252441287 0.40207511187 -0.15742839873 -0.37252223492 0.53306829929 0.38553085923
          0.85826867819 -0.51137506962 -1.3913354874 -0.083661533892 -0.65152060986 -0.12072300911
          0.49063047767 0.55165493488 1.0147893429 0.8143633604 -0.15182933211 0.24642319977
          -0.64679855108 -0.016265619546 0.39403072 1.1409519911 -0.20047542453 -0.13718757033
          -1.5544825792 0.017299741507 -0.56632506847 -0.080528698862 -0.55406081676 -0.019774090499
          0.78121078014 1.1052463055 -0.5183404088 0.27045306563 0.30496531725 0.11500630528
          0.6199247241 0.50303989649 0.60816067457 -0.92688888311 0.7901994586 0.67714685202
          0.56320101023 -0.32638168335 -0.075711429119 -0.11814432591 0.83974647522 0.60873901844
          -1.0864930153 -0.8757584095 -0.26911738515 0.94614714384 0.14055871964 0.89350408316
          0.051250953227 1.4132272005 0.63539427519 0.65093708038 -0.41526505351 -0.95962953568
          0.30908197165 -0.23334726691 -1.4011189938 0.75061786175 -0.45567423105 0.37696754932
          1.3847631216 1.2043651342 0.48187363148 0.20051948726 -0.20989181101 -0.13281016052
          -1.0338400602 -0.087021514773 -0.89882969856 -0.79819709063 -1.0840730667 -0.10350295156
          -0.16587606072 -1.2179585695 -0.089124746621 -0.28265577555 -0.65504401922 0.076804459095
          0.3661160171 -0.40200921893 0.17636878788 -0.53354781866 0.46148887277 -0.30135691166
          0.39267027378 0.42754364014 -0.28346824646 0.75274503231 0.058472264558 -0.5016579628
          -0.12731221318 0.12319852412 -0.40242919326 -0.31537646055 -0.11718336493 0.38442355394
          -0.25785529613 -0.42475196719 1.149001956 -0.066733464599 -0.54883146286 0.65575116873
          -0.94602763653 -0.56719881296 0.22571533918 -1.0614262819 0.1701336503 -0.88370126486
          0.84234166145 0.014433516189 0.87949109077 0.24152885377 -0.047306098044 0.073077954352
          -0.10606746376 -0.24061147869 0.23398260772 -0.26863563061 -0.14044734836 -0.81156301498
          0.85742247105 0.22762617469 -0.28962501884 0.077896870673 -0.20052608848 0.22707244754
          -0.35841783881 0.38865047693 0.33716893196 -0.74495780468 1.0913889408 0.30951267481
          0.2789619565 1.3676096201 0.98303866386 0.99081879854 1.3215880394 -0.44742229581
          -0.11382518709 -1.2190871239 0.48016631603 -1.0872832537 -0.61249679327 0.42140394449
          -0.54928183556 -0.062731385231 -0.73806399107 0.56685680151 -0.56790459156 0.34805047512
          0.47305631638 0.70979768038 0.051831930876 -0.22073993087 0.81271582842 0.18966829777
          0.13385136425 0.22883193195 -0.59304147959 0.36506026983 0.11899041384 -0.2612593472
          -0.011604035273 -0.9786298871 0.95850902796 -0.54507541656 -0.58573973179 0.047404769808
          0.11129661649 -0.25383141637 0.90308302641 -0.54782897234 -0.10986565053 0.073278129101
          -0.12573188543 -0.59667831659 -0.33658009768 0.0065354476683 -0.18957352638 -0.6065954566
          0.25952324271 -0.18939514458 -0.12963312864 -0.73645412922 -0.86496472359 -0.65137690306
          -0.24246276915 0.18726052344 0.41985303164 -0.41831311584 0.56520104408 0.24896062911
          0.032632354647 -0.18887962401 -0.038000430912 -0.93495684862 -0.13048733771 0.68029159307
          0.24739705026 -0.13201935589 -0.64538514614 -0.41229212284 0.20918034017 -0.85034894943
          -0.52316838503 -0.46567925811 -0.38126733899 0.086563698947 -0.48317816854 -0.45114722848
          0.20078241825 0.35901275277 -0.60556602478 -0.20162132382 0.53913420439 -0.24759891629
          0.59776175022 -0.25242629647 0.55120533705 0.1255364418 -0.16660043597 0.19615542889
          0.10626895726 0.36155059934 -0.79133588076 -0.4846123755 -0.1925098002 -0.95073747635
          0.18975681067 -0.85014170408 0.36485081911 0.38061761856 -0.11139406264 0.26349538565
          -0.86027801037 0.974855721 -0.12347728014 -1.2774692774 -0.49143958092 0.5801923275
          -0.16555163264 -0.12270207703 1.0568649769 -0.01469996199 -0.29730370641 0.6283749342
          -0.21372190118 1.0826274157 -1.1308449507 -0.4683149457 1.1745605469 -0.081665620208
          -0.304004848 0.040656868368 0.51404851675 0.69338625669 -0.2118152231 0.15938857198
          -0.21124668419 -0.33833953738 -0.16554191709 0.38410124183 -0.048957202584 0.17486810684
          1.1044405699 0.22280070186 -0.96685183048 -0.56093269587 -0.28036126494 -0.64740681648
          0.52288132906 -0.078738495708 -0.04285755381 0.19303160906 -0.60815775394 -0.072971902788
          0.21742916107 -0.21610745788 0.67819321156 -0.19980563223 -0.28864887357 0.50775426626
          0.46110892296 -0.70702660084 -0.65057611465 -1.0014437437 0.92798149586 0.15627530217
          0.21873818338 0.46633893251 0.23962801695 0.73532176018 0.072179555893 0.10989507288
          0.4487401247 0.58913451433 0.15755012631 0.97602105141 1.3474746943 0.71879923344
          -0.58606928587 -0.50437480211 -0.11756639183 0.50903952122 0.47125610709 0.77477049828
          -0.02585711889 -0.60894781351 0.42401075363 -0.54034417868 -0.23106569052 1.0998792648
          -1.0814549923 -0.78477370739 -0.097643963993 -0.81855046749 0.72476834059 -0.5617069602
          0.020077982917 -0.0094425566494 0.35022982955 0.421089679 -0.017457645386 -0.23743851483
          0.2368927002 0.98096287251 -0.30796945095 0.61448824406 -0.36128261685 -1.44222188
          0.39559063315 -0.041310060769 -0.005271489732 0.58010625839 -0.027208674699 -0.54003685713
          0.33710062504 -0.36551836133 0.71058958769 -0.09944307059 0.11781658977 0.74205577374
          -0.14836673439 -0.98740261793 0.14268621802 -0.15535742044 0.5195902586 0.54821842909
          0.057521428913 0.25809338689 0.22331413627 0.063113600016 -0.76678603888 -0.16250763834
          1.0233308077 -0.60428124666 -0.62111097574 -0.53237003088 0.22013103962 -0.23026418686
          -0.94561833143 1.2022598982 0.030859913677 0.17849753797 0.61677694321 0.70519548655
          0.45904320478 0.56194442511 0.044490534812 0.51331937313 -0.61349499226 -0.15763819218
          -0.26936107874 0.699452281 1.0515530109 0.73022186756 -0.38383835554 -0.52362298965
          0.80913150311 0.41646292806 0.75222831964 0.30267369747 0.28350701928 0.69918489456
          -0.19030794501 1.2052782774 -0.32500717044 -0.40885275602 0.72706019878 0.93083512783
          -0.1042984575 -0.38695892692 -0.67186057568 -0.45099490881 0.84273576736 0.58397436142
          -0.31315454841 0.64375787973 -1.1771239042 -0.1366263181 0.71376466751 0.33476385474
          -0.47361400723 -0.24361051619 -0.21564804018 -0.59228247404 -0.04103333503 0.80049026012
          0.82985901833 -0.19411465526 0.53263008595 -0.39069318771 0 0
          0 0 0 0 0 0
          0 0 0 0 0
        </DataArray>
        <DataArray type="Float32" Name="uz" format="ascii" RangeMin="-1.6809661388" RangeMax="1.7761231661">
          -0.52520173788 -0.24975124002 -0.37908476591 -0.029536686838 -0.20445981622 0.44495856762
          0.29129183292 0.12552678585 0.16106049716 -0.43742072582 0.64209765196 -0.32329070568
          -1.1430866718 0.13631612062 0.085174679756 0.023526780307 0.28878366947 -1.2266523838
          0.43757128716 1.0641565323 -0.12685252726 0.059502311051 -0.24679368734 0.26889011264
          0.22129201889 -0.73034596443 1.0144175291 0.056323319674 0.73309832811 -0.53410249949
          -0.072303697467 0.66901618242 1.2232474089 -0.098208896816 0.48765417933 -0.49340051413
          0.10765891522 -0.052064754069 0.19918064773 0.28647172451 -0.62658083439 0.19141204655
          -0.23654982448 -0.023820407689 -0.30091205239 -0.39058849216 0.065346576273 -0.39541441202
          -1.2400929928 -0.030072499067 -0.49800315499 0.060526680201 -0.049759797752 1.0973876715
          0.54919362068 -0.33378970623 -0.16500450671 1.0672508478 0.24457624555 0.74145931005
          -0.023663522676 -0.20094327629 0.31692141294 0.60301077366 -0.095487780869 0.20769351721
          -0.055174402893 -0.70014452934 -0.62025803328 -0.21972407401 -0.25958025455 0.38855931163
          -0.55241829157 0.53894978762 -0.62432920933 -0.54922544956 -0.45446807146 -1.108019352
          0.81969714165 0.02544269897 -0.040240325034 -0.49664467573 -0.28727945685 -0.69416588545
          0.91032969952 -0.28748103976 -1.0224548578 -0.97503077984 -0.12572598457 -0.30078786612
          -0.53510600328 -0.35674723983 0.58609557152 -0.17671822011 -0.45108631253 -0.47835639119
          0.10586202145 0.15590384603 0.26360821724 0.12454910576 -0.096197597682 -0.18407808244
          0.74676650763 -0.87923115492 -1.1644772291 0.47442111373 0.98466074467 0.83298051357
          -0.69797164202 0.10339699686 -0.4707531333 -0.10407023877 -0.61369848251 0.30224400759
          -0.28000289202 0.27633884549 -0.51770997047 0.042538866401 0.31694552302 0.043719034642
          0.082792975008 0.23994676769 -0.56471782923 0.091103628278 -0.20237736404 -1.1618038416
          -0.80765777826 0.050544269383 0.84077197313 -0.49943432212 0.14167059958 0.63904327154
          -0.17592011392 0.33262324333 0.17616152763 0.54921793938 -0.88104748726 -0.21262200177
          0.26529678702 0.40803650022 -0.81204319 -0.66978228092 0.093557521701 0.59675836563
          1.4808937311 -0.33005064726 -0.64632350206 0.22650893033 -0.74075776339 0.10528402776
          -0.71487039328 0.37873217463 -0.31661897898 0.23584099114 0.11107970029 0.13481225073
          -0.42430192232 -0.5535376668 -0.53137654066 -0.68908542395 -1.006759882 0.60164916515
          -0.86749923229 0.83163946867 -0.35007202625 0.28656375408 -0.12845253944 0.81178635359
          0.083878912032 1.1335196495 -0.32680279016 -0.4998152554 -0.2624437511 -0.24884204566
          -1.1997768879 -0.15451224148 -0.15533259511 -0.15994718671 -0.45161184669 -0.29215881228
          -0.27048042417 -0.28378564119 0.15096071362 -0.28135532141 -0.30334177613 -0.037807706743
          -0.12854652107 -0.44187873602 -0.22545579076 -0.047687534243 0.56496161222 0.83360296488
          0.48777866364 -0.48557555676 -0.7917394042 0.041552402079 0.21914193034 1.1046456099
          0.95221859217 0.53855252266 -0.22721621394 0.64912629128 1.2032524347 -0.22668880224
          -0.71042382717 -0.51632893085 0.21124270558 0.51909810305 0.66744065285 -0.32333749533
          -0.33042827249 0.40583014488 -0.91172111034 0.57454204559 -0.1081777513 0.072574704885
          0.279376477 0.27701362967 -0.40788310766 0.95953524113 1.1847831011 -1.0243986845
          1.3116055727 -0.066399402916 -0.6318358779 -1.4345364571 -0.27376496792 1.1823000908
          -0.22382281721 -0.033149175346 -0.40856817365 -0.2761618197 -0.44282236695 -0.65866297483
          -0.016126517206 0.23565143347 0.68271118402 -0.15520630777 0.34304821491 0.067981980741
          -0.014579256997 -0.7513166666 0.43536019325 0.343067348 -0.3572525382 0.78548187017
          -0.72718638182 -0.13632562757 -0.44298124313 -0.42540571094 -0.17215278745 0.88676834106
          -0.65614390373 -0.14823618531 -0.63847059011 -0.31584736705 -0.52654707432 0.88679420948
          -0.23634023964 -1.2837418318 0.57881611586 -0.64004969597 1.0632717609 0.079566314816