<VTKFile type="UnstructuredGrid" version="1.0" byte_order="LittleEndian" header_type="UInt64">
  <UnstructuredGrid>
    <Piece NumberOfPoints="791" NumberOfCells="973">
      <PointData>
        <DataArray type="Float32" Name="ux" format="ascii" RangeMin="-494.16262817" RangeMax="564.86309814">
          -162.50306702 105.87865448 -60.224399567 -159.65176392 122.40437317 -0.65972858667
          -46.260253906 21.864883423 48.929721832 80.596870422 -78.87374115 -9.8537731171
          1.0905816555 90.873832703 -91.03527832 -11.301681519 30.805927277 66.720863342
          -40.108551025 -65.378044128 57.304092407 76.871963501 -57.246044159 -66.033096313
          -76.429832458 -120.31148529 89.073318481 102.16683197 -167.85783386 283.79263306
          83.904251099 -364.36523438 444.83035278 274.4432373 411.6723938 -80.864753723
          -1.3226670027 -19.110744476 -18.350641251 7.7742261887 142.86499023 -34.590545654
          102.72628021 -154.69822693 -258.20254517 270.80554199 54.934860229 -302.68453979
          -310.4826355 -44.250354767 11.616776466 196.12487793 128.73733521 96.360565186
          40.69278717 65.315574646 141.18095398 147.03808594 53.61095047 132.80458069
          2.8956401348 129.03166199 -72.558944702 -108.98802185 28.206464767 -110.60271454
          5.0209288597 -114.65648651 43.380775452 95.893768311 -105.98011017 5.6971926689
          -5.6430573463 -74.216293335 10.87594986 127.63214874 63.590473175 -95.749763489
          -399.46652222 107.58483124 -24.209199905 -90.549476624 -188.91619873 -215.93251038
          -23.616603851 169.11857605 -132.51699829 -58.649589539 -44.475601196 -95.916191101
          45.493198395 59.942943573 15.417807579 -140.55636597 -102.30493164 40.040332794
          14.308017731 -65.582939148 95.036682129 82.526817322 76.03465271 160.83299255
          -88.495491028 112.88124084 12.971912384 18.304454803 -54.711471558 -162.29315186
          -130.24575806 -224.89712524 -154.62512207 -28.058635712 -17.572530746 51.520137787
          44.348247528 125.71372223 7.2778091431 -49.247608185 7.252448082 -66.471717834
          -35.79176712 -81.800727844 30.923847198 52.596313477 113.6132431 -21.996517181
          14.224279404 99.426338196 55.118888855 12.466246605 103.83565521 66.934127808
          10.076457977 108.5322113 50.946426392 -59.610347748 18.871644974 -55.319061279
          -8.2808036804 111.63186646 -48.044094086 37.807338715 72.934410095 76.461372375
          -184.54667664 -98.480537415 -241.22550964 -61.624359131 146.92552185 48.319946289
          -20.41746521 -24.702674866 59.320625305 30.134122849 38.725471497 74.050109863
          -191.97161865 133.67982483 62.192470551 -9.3032808304 -367.37948608 5.1405310631
          -46.800537109 107.80664062 404.54882812 -146.33087158 -3.3519463539 77.365249634
          161.18632507 -12.664010048 -6.0410504341 -59.433647156 -20.75737381 -31.508167267
          -11.996073723 -170.90826416 -263.30126953 -19.713247299 5.4541211128 70.252174377
          347.0116272 -326.30349731 -29.838193893 123.30658722 171.40274048 -99.929100037
          -3.3894283772 -28.868146896 175.01895142 -19.986341476 173.56407166 -143.62916565
          72.35748291 -40.016300201 126.83248901 109.73574829 -40.643482208 102.17926025
          48.065319061 66.691108704 20.245189667 22.056726456 81.387954712 -45.289772034
          -54.145610809 166.48635864 194.95651245 -146.88702393 180.21321106 -51.859909058
          52.481422424 -5.8076238632 -215.22122192 126.07032013 3.8966641426 -70.067382812
          -77.676765442 10.124985695 35.826217651 10.258520126 -156.34469604 37.397407532
          -76.835121155 47.631500244 -96.823371887 -92.932739258 -125.2668457 -18.525276184
          126.32775116 36.81584549 38.905582428 0.91166615486 -0.54232656956 2.5854496956
          -4.6304321289 140.28691101 -67.299949646 88.958427429 32.989723206 93.8804245
          -209.86534119 -84.180252075 -34.860389709 -169.78627014 155.68948364 -213.99281311
          17.69818306 -62.003173828 42.721324921 -14.686249733 31.102573395 107.20825958
          107.45249939 118.8272171 29.092222214 39.172840118 -283.81326294 -107.27776337
          35.476421356 14.078593254 152.39801025 -98.022590637 59.254776001 -11.170114517
          -50.548389435 -33.686035156 27.295980453 144.90486145 262.05163574 -68.807929993
          125.25200653 6.8540453911 -123.65167236 -243.90040588 11.576966286 30.683820724
          -180.70715332 122.77130127 -24.570615768 163.48728943 11.547593117 122.82097626
          -75.224990845 31.564575195 -144.53067017 225.97465515 94.286476135 -100.12418365
          -80.707633972 -155.77980042 27.210964203 -102.56276703 -131.6505127 -168.70172119
          1.5942811966 58.249336243 -143.602005 50.854629517 -34.509365082 22.311340332
          -25.110445023 -17.624040604 -182.77378845 96.396018982 -40.741409302 -103.56072998
          10.040813446 15.313441277 -136.08448792 239.63261414 88.363754272 -13.994682312
          -113.70742798 36.340118408 -46.718467712 -116.38451385 -154.76731873 25.412260056
          -50.330287933 40.79845047 -157.05813599 -20.08880806 130.23194885 206.31573486
          -0.9201130271 165.65896606 97.086280823 69.667251587 61.539821625 -43.108524323
          3.0411403179 -37.981338501 -119.04392242 81.288787842 -6.0242090225 9.402261734
          -111.40499878 2.9086842537 87.429679871 94.680351257 47.918533325 -0.072352513671
          47.110729218 -29.207147598 13.433782578 -40.178806305 26.762662888 36.779876709
          -188.13864136 197.37599182 315.33413696 -37.028499603 67.822212219 -114.67346191
          -50.865245819 -131.69914246 -63.286979675 -245.17236328 -69.087966919 52.243846893
          115.99352264 -32.542308807 -67.874977112 -88.927017212 -59.803630829 71.096817017
          -7.323472023 -1.5237845182 -12.091380119 -26.111003876 -52.101474762 258.94915771
          -150.26141357 -23.826463699 -12.401424408 -139.22769165 232.89268494 194.95172119
          116.33750916 -5.2516899109 -134.08403015 -9.5733623505 -61.633773804 153.12033081
          64.996856689 -21.173400879 62.505966187 -109.84384155 -1.1512202024 -100.12071991
          -244.12449646 -59.492118835 46.64491272 -9.4171457291 75.066612244 12.350546837
          186.52084351 194.66239929 18.139377594 97.51209259 -81.026504517 -115.27115631
          -43.49446106 219.46560669 -217.95433044 53.56199646 -49.593494415 76.765296936
          100.91284943 -48.516265869 -28.656847 -148.60145569 17.513896942 42.320301056
          -33.051856995 -4.8502526283 9.8186016083 11.14369297 85.309761047 321.49554443
          -224.32781982 -57.134792328 96.867210388 0.62590706348 41.66709137 160.56600952
          50.816745758 -145.98445129 70.458106995 5.8152356148 -49.014198303 -49.816272736
          -10.240157127 8.8052196503 -21.33155632 304.02560425 -49.070644379 32.792488098
          51.695236206 202.95626831 66.715248108 -8.5439376831 -113.30521393 -219.96601868
          66.513587952 60.837608337 -47.676498413 161.68496704 -110.23912048 -32.180934906
          -61.540657043 264.85531616 -196.62802124 37.249095917 79.264350891 -83.962478638
          55.427467346 -323.00289917 -21.89166832 -178.69877625 99.432342529 -4.0663518906
          14.194189072 132.26643372 -16.205579758 -47.759254456 111.17877197 97.497016907
          46.643363953 -126.61911774 72.202285767 -128.70965576 86.754745483 -73.773963928
          110.8405304 63.265026093 26.593271255 4.2460727692 -89.709060669 -68.67162323
          -57.118225098 -5.6268253326 31.642541885 253.83129883 -30.898662567 -35.312133789
          51.196334839 88.821655273 40.669322968 -76.300971985 76.263069153 124.79389191
          -34.374767303 39.773784637 -41.281219482 -40.123401642 24.857154846 81.330558777
          -99.979454041 140.55943298 -91.605659485 -173.22227478 -92.147384644 215.40447998
          67.387039185 -115.32873535 10.69424057 -1.8011502028 -15.885804176 43.925758362
          20.787759781 1.1187601089 -19.656513214 113.95537567 -88.38444519 74.202964783
          -175.40945435 -128.02244568 -62.175228119 225.16111755 -89.822853088 -214.55519104
          -159.54727173 -369.37963867 -73.894126892 15.822820663 -64.017211914 67.079940796
          -20.8474617 -100.98944092 9.3195352554 -78.037437439 3.5740408897 -105.2728653
          -76.910064697 -17.846414566 -52.896121979 -5.4448661804 77.080581665 30.818759918
          171.27316284 55.923152924 -49.466690063 -15.175853729 20.283420563 -104.34732056
          -30.909818649 227.24806213 -198.07548523 104.34111786 -60.655925751 -44.131622314
          -135.14808655 12.090744019 41.362426758 -326.52050781 178.36486816 -19.378990173
          8.5144443512 32.439964294 101.78770447 -127.74730682 -54.629444122 48.396759033
          -9.5977478027 133.756073 -60.763790131 -137.91638184 -71.56162262 33.404323578
          49.682826996 -192.52087402 139.35112 49.765766144 10.795989037 -70.368309021
          159.50512695 -45.111637115 -36.272632599 93.806098938 141.43652344 -129.06611633
          -16.543348312 273.22201538 100.81794739 75.286949158 -33.553520203 -198.88902283
          102.92799377 163.01113892 -128.28303528 -68.184555054 -42.833236694 129.51498413
          75.815834045 -110.45750427 22.920070648 -196.46972656 -9.9388847351 180.19784546
          182.3195343 113.05934906 41.298500061 98.06652832 -104.78160095 191.01409912
          -55.052082062 40.493808746 -26.561731339 90.365890503 -33.545978546 -34.552303314
          74.628761292 -47.43144989 -51.03515625 8.9381351471 129.71739197 31.54441452
          63.232566833 171.27270508 -200.59840393 108.69394684 -90.165405273 109.22888184
          -58.712783813 16.300100327 -41.757331848 316.16943359 -40.959949493 215.92381287
          39.525295258 132.53767395 -56.453495026 -95.917442322 -133.40068054 -272.30670166
          -22.257566452 -12.482563019 -85.367034912 49.846580505 49.992835999 -57.143596649
          -137.03108215 230.4161377 31.638448715 564.86309814 -199.79655457 377.01754761
          -114.49136353 10.476187706 -204.2923584 -494.16262817 56.518810272 15.085061073
          -14.004020691 2.2995290756 137.81169128 -60.566783905 -10.482168198 151.20968628
          -5.5317077637 149.38291931 -106.20436096 32.226730347 23.454462051 25.982257843
          1.1961303949 -81.796447754 3.3179883957 -95.389053345 -85.054748535 -87.327178955
          -59.267253876 119.57835388 29.564575195 8.8613586426 -83.213150024 -88.472206116
          40.216724396 30.520448685 -34.438743591 -51.694957733 -23.524246216 -195.31202698
          91.524345398 -84.742515564 -60.591960907 -7.5848350525 -58.646377563 -20.98670578
          -33.929347992 263.72897339 102.28894043 199.04838562 -54.982692719 -176.69113159
          6.5933237076 37.262641907 -52.375637054 -137.02984619 -222.99971008 72.095542908
          -87.242729187 -39.04434967 -85.553344727 106.12783051 -7.8935360909 12.077340126
          -71.580711365 -132.86930847 -143.6477356 -67.319229126 -9.799621582 192.01345825
          20.023097992 181.72319031 135.71923828 129.32627869 88.768745422 -48.719295502
          -111.74329376 -99.937202454 -162.54071045 -29.282640457 41.468959808 -158.0712738
          55.63955307 -14.771220207 159.61393738 -91.571609497 46.689682007 53.902919769
          -177.36393738 -114.41823578 -24.744224548 -68.429206848 65.264923096 88.544441223
          -115.12351227 258.26367188 141.90327454 116.64745331 -1.8192102909 169.54566956
          66.782287598 -298.10400391 -226.62988281 -224.01600647 -54.939002991 23.867603302
          68.070976257 -61.900276184 206.23980713 138.16296387 213.54164124 17.97350502
          117.98097992 8.1747217178 -165.32832336 -237.24476624 -323.82577515 -17.375513077
          72.122802734 -73.261459351 26.082731247 364.6237793 -348.3951416 528.86523438
          33.634532928 102.01322174 108.45713806 -156.80181885 -230.93334961 -347.18011475
          -148.88075256 -146.11782837 -85.489273071 -124.74332428 0 0
          0 0 0 0 0 0
          0 0 0 0 0
        </DataArray>
        <DataArray type="Float32" Name="uy" format="ascii" RangeMin="-856.37329102" RangeMax="658.13037109">
          -115.47841644 65.404083252 -114.49147797 -88.284469604 95.012611389 -177.21394348
          153.62527466 -30.850063324 18.3322258 160.65196228 -600.25750732 -75.839920044
          -88.40297699 205.56660461 -52.758003235 6.4652070999 65.321960449 51.767368317
          -152.53479004 -163.9450531 -391.00830078 293.0993042 234.08126831 37.455341339
          -77.233093262 -3.2970597744 543.09057617 -146.46170044 -232.69525146 85.712890625
          -127.24438477 -325.29953003 46.501857758 -44.543678284 117.28343964 -54.978507996
          -42.291023254 -94.614028931 18.606443405 -141.51161194 -137.29573059 164.1693573
          -248.3526001 102.10266113 147.22386169 42.007217407 222.7791748 -103.6023941
          182.39245605 -3.1207988262 112.17814636 -106.51581573 4.9116201401 91.625358582
          64.784576416 -191.16789246 -96.768875122 -42.269340515 48.006450653 -106.82426453
          69.395706177 -3.5862700939 -228.25907898 19.10197258 67.287361145 -23.900653839
          -158.68766785 59.041446686 94.358268738 5.5700178146 -69.769081116 26.212507248
          57.217170715 117.22806549 -164.53118896 67.208366394 109.15312195 18.127540588
          225.29130554 -164.3458252 86.649398804 46.78042984 -104.66467285 66.904602051
          -61.246658325 172.84924316 -39.862003326 99.952217102 25.670919418 72.242828369
          -63.376049042 26.70189476 279.42175293 44.534763336 -131.29977417 -10.070149422
          -54.97486496 22.603208542 -164.54670715 -19.2715168 -22.154563904 19.734710693
          97.343109131 131.20094299 23.941806793 17.878370285 -49.412166595 -60.956142426
          -48.786811829 -50.771286011 -365.84689331 10.336174011 36.541759491 -41.94475174
          -396.75646973 -100.0335083 97.363792419 -385.94824219 230.427948 33.199180603
          -8.3030471802 -15.795326233 6.9385685921 -26.627756119 -72.84526825 -46.133808136
          -84.20010376 -60.903388977 36.936061859 5.0952796936 -229.96250916 -24.73235321
          75.633712769 -160.73799133 69.488075256 51.807231903 -33.167415619 21.267345428
          8.8737792969 44.004787445 -24.133771896 -13.992630959 142.22814941 18.243242264
          209.55935669 59.242744446 -181.56286621 -21.791690826 294.71932983 6.8213915825
          204.13363647 62.150512695 29.790781021 149.85342407 103.35947418 -25.777002335
          -32.866096497 -36.333717346 77.225250244 93.324493408 108.11628723 -109.35277557
          38.674983978 -91.906143188 120.81182098 -113.37365723 -64.80141449 11.314579964
          132.63273621 183.5479126 31.441797256 -4.1882801056 -42.202625275 -69.903373718
          -29.411287308 19.289394379 149.41957092 -37.91985321 203.38525391 -17.712242126
          171.81758118 -317.26721191 -111.33273315 -84.716270447 221.66421509 18.985464096
          12.797548294 31.765003204 23.288221359 -90.006019592 -185.41127014 197.78201294
          -71.161346436 -111.65285492 -300.22406006 -106.41853333 272.73373413 -197.68521118
          31.239933014 -183.76890564 -76.660270691 74.137550354 -137.94348145 49.634746552
          -81.10383606 16.005681992 -8.7838954926 169.30731201 -32.641269684 -4.8073511124
          -122.26016998 -11.678081512 98.926193237 -41.06917572 10.616996765 -118.81420135
          -98.423377991 6.6307988167 -39.879180908 60.449836731 -241.31242371 23.828039169
          266.85742188 -120.1612854 286.04953003 239.81892395 293.46096802 211.24662781
          -38.423324585 75.183326721 -32.884212494 77.143379211 36.718647003 3.2106807232
          70.521408081 -32.914161682 -147.77903748 -20.008466721 63.169586182 -103.14959717
          193.69598389 133.0821228 121.575737 138.39967346 27.768180847 -98.541854858
          -35.653671265 43.507347107 136.14067078 -22.304983139 -42.646026611 -58.71144104
          -211.38024902 -46.751266479 4.2797017097 -113.53839111 80.14604187 8.8366661072
          279.56698608 27.663269043 -210.97340393 -60.422325134 -137.11776733 14.980363846
          -47.444801331 -179.38583374 -54.697776794 -72.792411804 74.255172729 -120.9962616
          -225.68540955 -74.612892151 -64.338554382 51.033184052 90.082832336 10.24138546
          -98.36277771 141.8764801 -12.978409767 -24.698654175 -52.320278168 -95.980606079
          -170.37852478 53.924354553 -4.9362988472 54.044265747 -125.46167755 130.17301941
          -284.33825684 156.19763184 108.30032349 100.87976837 248.10621643 135.77960205
          -47.412006378 -74.207794189 -97.496871948 -54.168193817 174.87039185 38.156700134
          52.57365036 42.477268219 -64.009742737 -3.2035753727 -160.69816589 95.769287109
          -62.730922699 105.34346771 -80.932189941 176.24658203 88.446327209 3.4323348999
          -150.92822266 -55.232414246 90.049301147 -94.779922485 -54.631538391 1.8918510675
          -28.913419724 152.19384766 -1.9747699499 27.356534958 -164.79431152 -74.199028015
          33.753955841 -76.31729126 137.46447754 -12.002861023 -54.965641022 61.251529694
          -106.27005005 1.6527193785 -40.896640778 31.566068649 97.951950073 62.961898804
          32.089309692 -41.877548218 -71.991218567 -54.396244049 100.21631622 -163.7552948
          35.358467102 -57.373786926 32.131778717 72.186775208 3.4237315655 25.448631287
          76.934280396 21.311115265 -96.462539673 139.63652039 -62.580097198 17.511819839
          -518.19494629 11.402231216 476.25805664 -28.279813766 167.97994995 72.019721985
          142.22067261 145.21464539 86.110107422 73.470329285 17.685285568 -30.267433167
          89.612808228 -18.075300217 89.300109863 -64.229263306 -247.89396667 -39.515350342
          -8.8793916702 -56.712356567 -65.013259888 25.260133743 -225.51576233 86.844551086
          -46.609924316 -81.969467163 120.98209381 99.638092041 -23.518432617 113.40537262
          50.777095795 142.01217651 55.293533325 15.773886681 -128.79692078 -247.97291565
          274.75830078 232.17764282 103.84825134 81.992378235 -3.6221210957 38.48708725
          -283.55392456 -294.47290039 -133.04414368 -232.77000427 -56.713546753 23.489873886
          -24.615932465 49.667980194 59.325153351 98.079597473 -56.28049469 -34.673854828
          -6.3912892342 -100.69271851 -49.117527008 143.32637024 -34.853363037 82.209220886
          -11.235126495 -64.895515442 -43.888126373 73.065055847 -78.738487244 -183.79246521
          40.818996429 -17.001930237 -13.53341198 -57.288749695 -159.96356201 -127.65379333
          -123.15452576 182.1824646 -25.841909409 -76.501350403 -59.00113678 1.566603303
          -44.881729126 114.10264587 31.636482239 -8.4789953232 42.11283493 -19.96370697
          -10.439727783 -69.552955627 -73.820098877 -306.30728149 -22.613876343 80.983726501
          149.60444641 169.50920105 36.580909729 -116.33415222 -80.817405701 78.468635559
          -83.4790802 145.10198975 98.788703918 -106.91135406 142.77076721 -213.52258301
          -112.88754272 -520.55548096 26.694368362 120.49243927 -10.161047935 146.73722839
          -48.20759201 -54.268680573 -5.0545806885 -85.071975708 79.188308716 303.31237793
          40.150924683 -112.46055603 238.07339478 -176.63952637 -4.9994587898 -26.885681152
          -14.849723816 206.38642883 32.169395447 138.22071838 -67.759803772 49.825706482
          101.17888641 9.5147724152 -51.937904358 124.00988007 73.384635925 -143.56817627
          152.57220459 2.7965941429 138.37846375 379.2567749 36.510654449 -16.089338303
          68.069015503 -129.74438477 63.127212524 39.520126343 69.473342896 -96.625198364
          -163.11090088 -33.878383636 16.881952286 -46.082080841 -12.498164177 -17.70479393
          40.527389526 220.08132935 -10.490999222 -211.59896851 106.17879486 -25.225820541
          24.282461166 56.855888367 -24.755226135 -110.59514618 -42.212867737 -35.066444397
          161.57598877 175.94898987 26.88885498 -125.40842438 -7.5369620323 199.47123718
          -115.77215576 -14.924316406 102.90138245 -81.615776062 72.591194153 -74.576782227
          32.431228638 79.796691895 1.3647125959 -199.41334534 29.125801086 229.19023132
          58.547561646 -364.67645264 113.49031067 116.75627136 -46.186725616 125.1799469
          266.48171997 -148.21858215 62.326366425 -79.505111694 100.40899658 2.093777895
          -89.28717041 -453.41091919 14.659049034 167.41842651 -129.09107971 -39.386928558
          59.263519287 -48.67067337 4.0887169838 110.22141266 111.43663788 -32.82806015
          143.39826965 42.564647675 111.6633606 97.95300293 -182.55500793 -236.44552612
          -31.614864349 -53.128803253 -189.10069275 157.90493774 -30.521945953 -149.0789032
          12.269161224 -33.282993317 -106.15458679 -20.731355667 126.47332764 239.43200684
          27.903209686 -50.881568909 74.49017334 28.011568069 35.050048828 -104.24578857
          38.264377594 -132.13044739 -39.913509369 -273.5585022 -8.9876384735 -82.24105072
          -117.53232574 -48.091571808 82.36125946 117.8645401 -23.753128052 -101.31309509
          102.7943573 28.045873642 17.076259613 101.48658752 84.0522995 -173.02978516
          -3.3470892906 -111.61766052 -15.71958828 -75.483688354 368.1204834 3.7692713737
          131.03089905 -73.465393066 -20.379407883 -97.363540649 -41.412002563 118.93439484
          -12.489556313 -36.602489471 112.1632843 -172.66952515 70.427841187 -9.5332164764
          -36.627723694 -107.67949677 442.8414917 91.097137451 103.49215698 -157.44773865
          -46.153388977 -166.82258606 -103.0403595 41.432010651 -74.6199646 156.60748291
          -9.2281293869 147.68685913 9.2525787354 -97.008964539 -162.41525269 -0.25661543012
          -24.154045105 267.37573242 -36.038272858 -90.066490173 -60.274394989 -92.471359253
          -80.569107056 -26.773843765 -67.281967163 392.34552002 -270.77667236 248.15023804
          -142.80029297 -111.41046906 -168.36502075 -207.99645996 -378.69491577 174.29789734
          -141.56907654 40.449645996 -13.847275734 -132.63771057 -37.472473145 111.16950226
          -19.917701721 338.07208252 -106.05745697 197.44351196 -82.945152283 73.501243591
          15.431845665 -41.162250519 -127.46354675 91.287086487 -142.61222839 177.30207825
          11.63315773 7.1237354279 37.303188324 -13.140958786 -4.138692379 154.01589966
          33.432353973 57.729492188 -37.106414795 96.549468994 36.495452881 32.485500336
          -25.77233696 -40.231735229 -16.811470032 50.119682312 -32.408988953 83.196060181
          -166.76629639 29.068792343 -95.853164673 -127.90541077 -105.54775238 115.23406219
          186.49272156 -85.904502869 87.559143066 61.051357269 -43.252361298 238.92576599
          18.347412109 -40.460529327 -54.163196564 -81.742515564 143.14581299 161.84855652
          43.076854706 219.79244995 -124.88995361 85.241073608 -0.85661941767 217.96739197
          206.50544739 80.126083374 57.653945923 61.60609436 57.621139526 158.47984314
          109.61647797 429.53543091 -227.32748413 0.48060920835 -15.238531113 245.78825378
          -371.89727783 57.386615753 -321.35928345 -70.038955688 429.52734375 107.02422333
          -856.37329102 5.584569931 332.15179443 -185.41372681 -16.995880127 -29.682090759
          -37.772529602 -253.43838501 503.46694946 -121.56001282 121.97163391 -30.376903534
          -83.582832336 137.72354126 -66.207008362 -329.17999268 202.42446899 264.38674927
          -440.33401489 -150.31433105 223.10780334 -164.57611084 138.06288147 199.92472839
          -203.18981934 77.302200317 486.2961731 -109.49372864 54.789794922 311.68496704
          352.10876465 -120.50473785 221.08520508 306.65362549 -510.35314941 361.88372803
          90.777702332 266.33288574 95.388404846 8.9793758392 156.25134277 658.13037109
          -118.68761444 134.46591187 292.58505249 407.54177856 0 0
          0 0 0 0 0 0
          0 0 0 0 0
        </DataArray>
        <DataArray type="Float32" Name="uz" format="ascii" RangeMin="-346.08261108" RangeMax="327.1434021">
          -245.46867371 124.00524902 28.841667175 11.27991581 -1.5913443565 167.84703064
          -104.28504944 -91.264251709 33.435821533 -79.39276123 -86.08480072 -36.119365692
          -7.5190753937 -29.240142822 -73.489067078 -99.43711853 19.171373367 -50.964561462
          -56.021190643 -71.638008118 -88.140518188 47.02878952 43.891368866 0.90457743406
          40.902923584 -60.095867157 -177.68052673 -1.9317287207 -151.62974548 -91.313926697
          40.748756409 -1.2623654604 -154.8994751 -13.866233826 35.347042084 49.798927307
          103.20457458 -200.14474487 -66.230957031 -191.67935181 -77.004943848 84.305496216
          -0.21589876711 -55.30531311 81.055427551 -90.414855957 23.425657272 -90.633514404
          -6.2750244141 -67.584564209 -18.989181519 -133.37695312 -97.963798523 -56.839057922
          -112.57069397 -0.43364343047 -16.741996765 -148.99201965 -77.183555603 -36.111530304
          -205.62432861 -88.021842957 -52.155258179 -1.9311778545 -146.70822144 5.2681121826
          -113.36618805 -83.165130615 -39.711261749 -35.918136597 38.319320679 -65.859176636
          29.863286972 41.528465271 -103.52071381 9.0010223389 -103.52037811 -1.5233736038
          7.3473806381 13.905020714 30.67814064 127.46250916 71.058151245 26.967674255
          29.700626373 69.573822021 75.007118225 43.117282867 98.15789032 111.85483551
          3.2894835472 49.427005768 21.140794754 43.208961487 105.90527344 7.6239023209
          234.64855957 63.809276581 -8.2734594345 138.70857239 51.978023529 255.87507629
          -25.075622559 212.56578064 169.19921875 155.56965637 -9.521232605 -9.8024578094
          9.1583118439 -3.7819457054 59.763320923 11.770040512 6.4591898918 -74.080108643
          -42.572021484 -6.4663529396 8.7374296188 79.4012146 -19.205131531 39.459011078
          35.372478485 71.929901123 11.291367531 6.5759692192 157.87333679 49.92905426
          99.134101868 -13.451911926 -63.787208557 -131.32617188 58.616977692 -105.42947388
          93.183853149 -13.332580566 -13.212260246 -67.09185791 -0.57936984301 -17.544187546
          65.198623657 -33.581401825 216.0534668 83.940177917 21.567504883 -57.184871674
          10.139445305 -89.250091553 148.4417572 -70.385108948 102.16876984 79.486320496
          31.524490356 17.631999969 46.283626556 -23.135334015 189.93054199 -30.528945923
          6.5314965248 33.429584503 -79.713378906 -83.313087463 -85.123703003 -131.47314453
          -134.4150238 -44.484657288 -97.650566101 19.241674423 -69.233253479 52.242332458
          41.768669128 -45.193729401 37.514137268 19.137479782 -65.916503906 30.933736801
          -34.369663239 11.952483177 -143.96034241 -135.5920105 -183.50621033 -40.732479095
          -56.075839996 -66.300949097 -67.255958557 25.292360306 17.965936661 7.8505511284
          -1.5839574337 -67.781166077 -129.11378479 -59.850776672 -25.346626282 34.481082916
          -173.66123962 -25.267242432 -40.201145172 -71.978485107 -60.822704315 -102.98913574
          67.848373413 -78.340431213 1.7180626392 80.60962677 38.663898468 -58.228313446
          13.034814835 -0.6307156086 -73.388458252 -58.171245575 53.707443237 86.394134521
          179.46530151 -1.0625300407 46.502552032 -36.333213806 94.466087341 -3.9434113503
          -27.877153397 -39.230220795 69.857727051 -162.35456848 -131.29042053 -109.63211823
          -176.58435059 -104.69189453 232.40126038 121.17533875 135.41416931 87.243804932
          -4.0492696762 72.363540649 21.456537247 92.191955566 -22.634447098 -104.35482025
          -100.33278656 -4.6186909676 56.169445038 -58.034908295 141.61940002 31.592111588
          327.1434021 141.25204468 182.05732727 102.77664948 109.41343689 154.0138092
          27.611801147 90.390571594 -6.3873252869 8.4773464203 -57.872390747 -40.661708832
          -134.64894104 -9.0742444992 -9.5752925873 2.1977894306 7.3905534744 -98.866371155
          -167.89987183 47.310012817 -111.42750549 54.333850861 -117.0894928 47.975765228
          -20.244361877 5.5853123665 -86.555778503 -19.621414185 -53.681079865 -42.427131653
          71.339241028 53.952411652 -60.885616302 -77.068069458 -66.387229919 -51.861293793
          4.924665451 72.501686096 -25.099615097 -8.4823923111 -0.73870950937 79.522270203
          -5.4120030403 77.444252014 109.11708069 51.822612762 196.10040283 29.537014008
          -73.611999512 -41.869590759 39.691150665 -48.848499298 143.67060852 116.30293274
          16.015871048 3.3035707474 62.331199646 96.282203674 75.508720398 -38.595680237
          13.026118279 -15.760560036 43.243789673 11.910449028 -27.116914749 -63.087978363
          -71.079971313 -62.091976166 -19.683578491 136.57528687 18.077394485 -8.0894880295
          101.10359955 105.70613098 29.742202759 -71.190742493 -176.8588562 -112.99299622
          110.88569641 33.246074677 -38.729869843 -112.97611237 -125.09594727 -76.797180176
          -21.346675873 144.7575531 -69.685768127 4.6023898125 62.787277222 108.74726105
          -121.25392914 -15.45443821 -76.931343079 -49.228805542 50.594783783 17.235097885
          19.621192932 -0.54888558388 -4.7199640274 -0.56607991457 17.866163254 84.551315308
          -9.4988498688 26.993780136 18.654031754 27.038570404 -60.950626373 116.21691895
          132.66448975 -71.058601379 29.688791275 131.10653687 -106.09828186 49.733997345
          -4.94535923 -35.793327332 90.361030579 67.001846313 46.441078186 -83.545928955
          -103.30792999 58.880268097 54.661403656 13.449843407 69.042182922 -161.5133667
          136.6133728 -112.32442474 -16.421190262 11.650655746 9.5412349701 89.220344543
          -105.5708847 -57.701961517 -162.83665466 -92.090759277 169.87844849 -85.79523468
          120.67984009 12.543306351 88.753997803 64.289024353 120.185112 -90.884963989