<VTKFile type="UnstructuredGrid" version="1.0" byte_order="LittleEndian" header_type="UInt64">
  <UnstructuredGrid>
    <Piece NumberOfPoints="791" NumberOfCells="973">
      <PointData>
        <DataArray type="Float32" Name="ux" format="ascii" RangeMin="-1.0934810638" RangeMax="0.7691732645">
          0.41513410211 0.4397264421 0.44901761413 0.41007757187 0.41513305902 0.44901937246
          0.43972751498 0.41512849927 0.43419978023 0.41943708062 0.4100664854 0.43420234323
          0.41513043642 0.41944471002 0.43410030007 0.41939139366 0.43409737945 0.41938126087
          0.4639698565 0.43264514208 0.46396765113 0.46403813362 0.46404021978 0.46395987272
          0.43258157372 0.46396115422 0.40676826239 0.66992539167 0.67045819759 0.66994309425
          0.60285156965 0.6029574275 0.60288488865 0.67064362764 0.60302489996 0.67068058252
          0.60323774815 0.67047578096 0.67080712318 0.67082715034 0.60268729925 0.60285621881
          0.60306769609 0.67001539469 0.6021451354 0.67063218355 0.60291689634 0.67065906525
          0.60284823179 0.67128574848 0.6034373045 0.66999125481 0.60213953257 0.67073732615
          0.60279148817 0.67116415501 0.60331869125 0.67075133324 0.60331022739 0.72147578001
          0.72200167179 0.72149652243 0.72220540047 0.72230416536 0.72196495533 0.72231346369
          0.72238510847 0.72140657902 0.72216725349 0.7221814394 0.72290629148 0.72138887644
          0.72224503756 0.72278243303 0.72237300873 0.7545260787 0.7551175952 0.75454413891
          0.75534236431 0.75543737411 0.75508409739 0.75546896458 0.75553739071 0.75448381901
          0.75530177355 0.75532221794 0.75610333681 0.75446534157 0.75540149212 0.75597608089
          0.75550580025 0.76750564575 0.76812785864 0.76752382517 0.76836889982 0.76847219467
          0.76809936762 0.76850318909 0.76857483387 0.76746451855 0.76832705736 0.76835137606
          0.7691719532 0.7674472332 0.76843601465 0.76904302835 0.76854014397 0.75926077366
          0.75990128517 0.75927847624 0.76014953852 0.7602545619 0.7598734498 0.76028811932
          0.76036030054 0.75922328234 0.76010650396 0.76013255119 0.76097279787 0.7592061162
          0.7602211237 0.76084274054 0.76032245159 0.72922480106 0.72986626625 0.72924262285
          0.73011505604 0.73021960258 0.72984075546 0.730255723 0.73032671213 0.72919130325
          0.73007273674 0.73009943962 0.73093944788 0.72917407751 0.73018854856 0.73080909252
          0.73028773069 0.67739522457 0.67802220583 0.67741346359 0.6782643199 0.67836534977
          0.67799860239 0.67840445042 0.67847239971 0.6773660779 0.67822402716 0.67824989557
          0.67907077074 0.67734837532 0.67833667994 0.67894089222 0.67843401432 0.60431152582
          0.60490942001 0.6043304801 0.60513842106 0.60523325205 0.60488778353 0.60527563095
          0.60533893108 0.60428702831 0.60510140657 0.60512518883 0.60590934753 0.60426861048
          0.6052069664 0.60578066111 0.60530275106 0.51101702452 0.51157283783 0.51103693247
          0.5117828846 0.51186907291 0.51155310869 0.51191496849 0.51197224855 0.51099741459
          0.51175028086 0.51177090406 0.51250261068 0.51097798347 0.51184523106 0.51237571239
          0.51193964481 0.39900413156 0.39950683713 0.3990252316 0.39969313145 0.39976868033
          0.39948910475 0.399818331 0.39986824989 0.39898964763 0.39966583252 0.3996823132
          0.4003482759 0.39896899462 0.39974719286 0.4002238214 0.39984053373 0.27014514804
          0.27058622241 0.27016761899 0.27074488997 0.27080821991 0.27057042718 0.27086177468
          0.27090343833 0.27013599873 0.27072367072 0.27073526382 0.2713252008 0.27011391521
          0.27078911662 0.27120354772 0.27088150382 0.12660889328 0.12698248029 0.12663283944
          0.1271109879 0.1271610111 0.12696868181 0.12721858919 0.12725132704 0.12660515308
          0.12709631026 0.12710255384 0.12760941684 0.12658154964 0.127144292 0.12749087811
          0.12723585963 -0.029235394672 -0.028931964189 -0.029209922999 -0.028834836558 -0.028798585758
          -0.028943793848 -0.028736939654 -0.028713434935 -0.029233641922 -0.028842702508 -0.028842063621
          -0.028421519324 -0.029258843511 -0.028812939301 -0.028536794707 -0.028722148389 -0.19492469728
          -0.19469076395 -0.19489771128 -0.1946247071 -0.19460208714 -0.19470062852 -0.19453641772
          -0.194522053 -0.19491747022 -0.19462582469 -0.19463072717 -0.19429568946 -0.1949442476
          -0.19461406767 -0.19440771639 -0.19452409446 -0.36801832914 -0.367849648 -0.36798992753
          -0.36781272292 -0.36780297756 -0.36785754561 -0.36773335934 -0.3677276969 -0.36800572276
          -0.36780747771 -0.3678175509 -0.36756291986 -0.36803397536 -0.36781257391 -0.36767184734
          -0.36772352457 -0.54622113705 -0.54610979557 -0.54619151354 -0.54609847069 -0.54610002041
          -0.54611569643 -0.54602664709 -0.54602879286 -0.54620331526 -0.54608756304 -0.54610204697
          -0.54591816664 -0.54623287916 -0.54610723257 -0.54602438211 -0.54601931572 -0.72751277685
          -0.72744685411 -0.72748214006 -0.72745573521 -0.72746652365 -0.72745078802 -0.72738969326
          -0.72739821672 -0.72749006748 -0.72744017839 -0.727458179 -0.72733074427 -0.72752064466
          -0.72747135162 -0.72743475437 -0.72738474607 -0.91027915478 -0.91024303436 -0.91024786234
          -0.9102653265 -0.91028225422 -0.91024488211 -0.91020220518 -0.91021561623 -0.91025155783
          -0.91024649143 -0.91026645899 -0.91017663479 -0.91028285027 -0.9102845192 -0.91027921438
          -0.9101998806 -1.0934504271 -1.0934245586 -1.093419075 -1.0934512615 -1.0934706926
          -1.0934252739 -1.0933887959 -1.0934041739 -1.0934203863 -1.0934312344 -1.0934517384
          -1.093375206 -1.0934517384 -1.0934714079 -1.0934772491 -1.0933879614 0.48981410265
          0.50383943319 0.48985531926 0.50920981169 0.50059956312 0.53182321787 0.53522974253
          0.51793670654 0.54559540749 0.51785683632 0.52651125193 0.51812142134 0.54558986425
          0.53516089916 0.51801139116 0.50067812204 0.48776167631 0.4935631156 0.5116276145
          0.46389633417 0.47868287563 0.51156699657 0.49349784851 0.60285305977 0.60295820236
          0.60288542509 0.66992723942 0.6704595685 0.66994422674 0.60302627087 0.6706456542
          0.60323989391 0.67068296671 0.60268807411 0.60285633802 0.60306817293 0.67047715187
          0.67080771923 0.67082804441 0.60214573145 0.67001652718 0.60291785002 0.67063373327
          0.6028496027 0.6706610322 0.60343694687 0.67128610611 0.60214078426 0.66999310255
          0.60279333591 0.67073976994 0.60332089663 0.67116683722 0.60331010818 0.67075186968
          0.72147810459 0.72200340033 0.72149813175 0.72220784426 0.72230708599 0.72196674347
          0.72231453657 0.72238647938 0.72140818834 0.72216916084 0.72218382359 0.72290706635
          0.72139120102 0.72224789858 0.72278559208 0.72237402201 0.75452870131 0.75511968136
          0.75454604626 0.75534510612 0.75544059277 0.75508618355 0.75547033548 0.75553905964
          0.75448572636 0.75530403852 0.75532490015 0.7561044693 0.75446796417 0.75540465117
          0.75597953796 0.75550711155 0.76750850677 0.76813012362 0.76752585173 0.76837188005
          0.76847565174 0.7681016922 0.76850473881 0.76857668161 0.76746666431 0.76832956076
          0.76835429668 0.7691732645 0.76745003462 0.76843941212 0.76904666424 0.76854157448
          0.75926375389 0.75990366936 0.75928062201 0.76015257835 0.76025813818 0.75987583399
          0.76028972864 0.76036226749 0.75922554731 0.76010906696 0.76013559103 0.76097422838
          0.75920897722 0.76022464037 0.76084649563 0.76032406092 0.72922772169 0.72986859083
          0.72924476862 0.73011803627 0.73022311926 0.72984308004 0.73025733232 0.73032861948
          0.72919350863 0.73007529974 0.73010241985 0.73094081879 0.72917693853 0.73019194603
          0.73081284761 0.73028928041 0.67739796638 0.6780244112 0.67741543055 0.67826718092
          0.67836868763 0.67800080776 0.67840594053 0.67847418785 0.67736810446 0.67822641134
          0.6782527566 0.67907196283 0.67735111713 0.6783400178 0.6789444685 0.67843538523
          0.60431402922 0.60491138697 0.60433220863 0.60514104366 0.60523635149 0.60488975048
          0.60527682304 0.6053404808 0.60428881645 0.60510355234 0.60512781143 0.60591030121
          0.60427111387 0.60521006584 0.60578399897 0.60530388355 0.51101917028 0.51157438755
          0.51103830338 0.51178514957 0.51187187433 0.51155471802 0.51191586256 0.51197344065
          0.5109988451 0.511752069 0.51177310944 0.51250314713 0.51098012924 0.51184791327
          0.51237869263 0.51194047928 0.39900583029 0.39950796962 0.39902615547 0.39969494939
          0.39977100492 0.39949023724 0.39981871843 0.39986899495 0.3989906311 0.39966714382
          0.39968410134 0.40034842491 0.39897066355 0.39974945784 0.4002263546 0.39984086156
          0.27014634013 0.27058681846 0.27016803622 0.27074620128 0.27081000805 0.27057108283
          0.27086165547 0.27090364695 0.27013644576 0.27072447538 0.27073654532 0.27132481337
          0.2701150775 0.27079084516 0.27120554447 0.27088132501 0.12660948932 0.12698251009
          0.12663266063 0.12711168826 0.12716221809 0.12696871161 0.12721785903 0.12725093961
          0.12660501897 0.12709653378 0.1271032393 0.12760843337 0.12658211589 0.12714543939
          0.12749227881 0.12723508477 -0.029235456139 -0.028932597488 -0.029210750014 -0.028834789991
          -0.028798040003 -0.028944417834 -0.028738329187 -0.028714476153 -0.029234444723 -0.028843145818
          -0.02884202823 -0.028423158452 -0.029258931056 -0.028812434524 -0.028536038473 -0.028723580763
          -0.19492545724 -0.19469210505 -0.1948992461 -0.19462534785 -0.19460225105 -0.19470195472
          -0.19453850389 -0.19452379644 -0.19491897523 -0.19462697208 -0.19463139772 -0.19429802895
          -0.19494503736 -0.19461426139 -0.19440765679 -0.19452622533 -0.36801981926 -0.36785170436
          -0.36799219251 -0.36781412363 -0.36780387163 -0.36785960197 -0.36773619056 -0.36773017049
          -0.36800795794 -0.36780935526 -0.36781895161 -0.36756598949 -0.36803549528 -0.36781349778
          -0.3676725328 -0.36772638559 -0.54622340202 -0.54611259699 -0.54619449377 -0.54610061646
          -0.54610168934 -0.54611849785 -0.54603028297 -0.54603201151 -0.54620635509 -0.54609018564
          -0.54610419273 -0.54592204094 -0.54623514414 -0.5461089015 -0.54602581263 -0.5460229516
          -0.72751581669 -0.72745043039 -0.72748595476 -0.72745865583 -0.72746890783 -0.7274543643
          -0.7273940444 -0.72740221024 -0.72749382257 -0.72744357586 -0.72746109962 -0.72733533382
          -0.7275236845 -0.72747379541 -0.72743695974 -0.72738915682 -0.91028296947 -0.9102473855
          -0.9102524519 -0.91026902199 -0.91028547287 -0.91024923325 -0.91020733118 -0.9102203846
          -0.91025614738 -0.91025072336 -0.91027015448 -0.91018199921 -0.91028666496 -0.91028773785
          -0.91028219461 -0.9102050662 -1.0934550762 -1.0934298038 -1.0934244394 -1.0934557915
          -1.0934746265 -1.0934303999 -1.0933947563 -1.0934096575 -1.0934257507 -1.0934361219
          -1.0934561491 -1.0933812857 -1.0934563875 -1.093475461 -1.0934810638 -1.0933939219
          0.48981401324 0.50383961201 0.48985534906 0.50921052694 0.50059962273 0.53182339668
          0.5352293849 0.5179361105 0.5455955863 0.51785713434 0.52651196718 0.51812130213
          0.54559063911 0.53516197205 0.51801222563 0.50067800283 0.48776188493 0.49356305599
          0.5116276741 0.46389609575 0.47868272662 0.51156717539 0.49349829555 0.30118608475
          0.30119967461 0.3011879921 0.30129781365 0.30116391182 0.30129736662 0.30117157102
          0.30128389597 0.30114579201 0.30116596818 0.30116850138 0.30117234588 0.30128407478
          0.2017441839 0.20158484578 0.20174378157 0.20233754814 0.20174910128 0.20233760774
          0.20178341866 0.20233127475 0.20174147189 0.20172402263 0.20172347128 0.2015606612
          0.20233128965 0.11725760996 0.11704338342 0.11725774407 0.11814219505 0.11724997312
          0.11814216524 0.11730405688 0.11813691258 0.1172433719 0.11724471301 0.11724487692
          0.11702725291 0.11813692003 0.053297944367 0.053027693182 0.053297974169 0.054389439523
          0.053316462785 0.054389413446 0.053396262228 0.0543862544 0.053312540054 0.053289495409
          0.053289514035 0.053017314523 0.054386287928 0.013545786031 0.013145265169 0.013545868918
          0.015189948492 0.013483468443 0.015189906582 0.013560544699 0.015188373625 0.013481548987
          0.013541829772 0.01354191266 0.013140380383 0.015188413672 0 0
          0 0 0 0 0 0
          0 0 0 0 0
        </DataArray>
        <DataArray type="Float32" Name="uy" format="ascii" RangeMin="-0.001242723316" RangeMax="0.0012418429833">
          -4.1906874685e-05 4.3517604354e-05 -5.9979869548e-05 -1.035742298e-05 1.659120062e-05 3.4296750528e-05
          -6.8731489591e-05 7.1161150117e-05 0.00025240602554 6.4382082201e-05 -1.0570684026e-05 -0.00027810913161
          -9.6369665698e-05 -8.8380955276e-05 -0.00022807768255 -6.7055960244e-05 0.00020255109121 4.3178279157e-05
          7.3249226261e-05 -1.2690436051e-05 -9.9653785583e-05 0.0001017293107 -0.0001282060839 4.5835888159e-05
          -1.282804169e-05 -7.2173279477e-05 -1.033369881e-05 0.00013445159129 -0.00032801079215 -0.0006430974463
          3.2667252526e-05 -0.00027331424644 -0.00049957382726 -5.5252192396e-05 -0.00011461511895 0.00039488129551
          0.00020794356533 -6.1117912992e-05 0.00050877238391 -0.00018182311032 -6.127339293e-05 0.00040555934538
          -0.00012489770597 0.0002690286492 0.00021113567345 -0.00020150127239 -0.00018642283976 -0.00038231301005
          -0.00035301444586 -0.0001581027027 -0.00011222314788 -0.000569687807 -0.00047283348977 -0.0008714327123
          -0.00073392182821 -0.00024270263384 -0.00027000304544 -0.00083850254305 -0.00062505644746 0.00018072339299
          -0.00035776480217 -0.00071410625242 -3.8480338844e-05 0.00048024451826 -6.0378111812e-05 0.00056973891333
          -0.0001972358441 0.0003047818027 -0.00021368903981 -0.00041441828944 -0.00018116057618 -0.00062584783882
          -0.00095780525589 -0.00024640536867 -0.00094657350564 0.00021312809258 -0.00037563379738 -0.0007629833417
          -2.8612135793e-05 0.00053997157374 -5.581908772e-05 0.00063177826814 -0.00020425967523 0.00034175429028
          -0.00022095863824 -0.00044043530943 -0.00018717796775 -0.00067661219509 -0.0010362610919 -0.000254048442
          -0.0010188405868 0.0002401581587 -0.00038623591536 -0.00079499633284 -1.6700249034e-05 0.00058686849661
          -5.0359583838e-05 0.00067303614924 -0.00020744855283 0.00036773193278 -0.00022298951808 -0.00045418753871
          -0.00019188706938 -0.00070542283356 -0.001082511968 -0.00025358813582 -0.0010689967312 0.00025807588827
          -0.00038681167644 -0.0008064613794 -6.1888827076e-06 0.00061506737256 -4.3153846491e-05 0.00069767126115
          -0.0002049087052 0.0003851565998 -0.00021940446459 -0.0004559213703 -0.00019024853827 -0.0007150725578
          -0.0011003791587 -0.00024800738902 -0.00108951726 0.00026815015008 -0.00037785465247 -0.00079797126818
          4.1192356548e-06 0.00062631483888 -3.3936044929e-05 0.0007057452458 -0.00019650165632 0.00039422378177
          -0.00020998679975 -0.00044573255582 -0.00018289008585 -0.00070502056042 -0.0010894559091 -0.0002365194814
          -0.001082127681 0.00027079324354 -0.00035930518061 -0.00076994684059 1.4300381736e-05 0.0006213375018
          -2.2543366867e-05 0.00069817487383 -0.00018225183885 0.0003955080756 -0.00019470311236 -0.00042368419236
          -0.000169666906 -0.00067582732299 -0.0010505934479 -0.00021919269057 -0.001047301339 0.00026687548961
          -0.000331586838 -0.00072349619586 2.4715049221e-05 0.00060163508169 -8.8198212325e-06 0.00067638425389
          -0.00016224371211 0.00038987462176 -0.00017366552493 -0.00039036356611 -0.00015069695655 -0.00062854634598
          -0.00098549784161 -0.00019610935124 -0.00098677794449 0.00025746150641 -0.00029531892505 -0.00066024553962
          3.5690747609e-05 0.00056915765163 7.3430260272e-06 0.00064227782423 -0.00013674850925 0.0003784353612
          -0.00014713560813 -0.00034661727841 -0.00012624442752 -0.00056477967883 -0.00089664483676 -0.00016754001263
          -0.00090295448899 0.00024386784935 -0.00025136690238 -0.00058233662276 4.7604331485e-05 0.0005263472558
          2.6028310458e-05 0.00059822184267 -0.0001061515577 0.00036254798761 -0.00011550279305 -0.00029360369081
          -9.6695068351e-05 -0.00048661910114 -0.00078725453932 -0.00013387086801 -0.00079898437252 0.00022764025198
          -0.00020079671231 -0.00049236853374 6.0874859628e-05 0.00047610345064 4.7303878091e-05 0.00054702878697
          -7.0953108661e-05 0.00034381315345 -7.9266246757e-05 -0.00023273882107 -6.2547951529e-05 -0.00039661183837
          -0.0006612240104 -9.5600604254e-05 -0.00067867501639 0.00021054690296 -0.00014484618441 -0.00039334292524
          7.5973461207e-05 0.00042175067938 7.1237387601e-05 0.00049192266306 -3.1737083191e-05 0.00032406105311
          -3.9010843466e-05 -0.00016566387785 -2.4386041332e-05 -0.00029769688263 -0.00052304688143 -5.3312898672e-05
          -0.00054641929455 0.00019456466543 -8.4886793047e-05 -0.00028859588201 9.3433096481e-05 0.00036699991324
          9.7912132333e-05 0.00043650285807 1.085292115e-05 0.00030533855897 4.6195623327e-06 -9.4199109299e-05
          1.7148306142e-05 -0.00019314067322 -0.00037772089127 -7.6503638411e-06 -0.00040710275061 0.00018186682428
          -2.238028901e-05 -0.00018172335695 0.00011385718244 0.00031590720755 0.0001274440292 0.0003847037442
          5.6145017879e-05 0.00028989411658 5.095220331e-05 -2.0294062779e-05 6.1384045694e-05 -8.6464118795e-05
          -0.00023064672132 4.0715527575e-05 -0.0002660039172 0.00017481313262 4.1160285036e-05 -7.6505202742e-05
          0.00013794175175 0.00027283563395 0.00016000555479 0.00034075826989 0.0001034685265 0.00028016668512
          9.9317549029e-05 5.4019259551e-05 0.00010765340994 1.8632434148e-05 -8.7525186245e-05 9.1117210104e-05
          -0.00012869377679 0.00017592294898 0.00010424166976 2.3191336368e-05 0.00016644975403 0.00024239033519
          0.00019583110407 0.0003091354738 0.0001521983213 0.00027875951491 0.00014908490994 0.00012670842989
          0.00015532683756 0.00011836572958 4.5779299398e-05 0.00014292525884 -9.0097330485e-07 0.00018795185315
          0.00016535115719 0.00011341180652 0.00020037293143 0.00022950601124 0.00023531769693 0.00029466275009
          0.00020177483384 0.00028852390824 0.00019969789719 0.00019567531126 0.00020386882534 0.00020885487902
          0.00016318990674 0.00019556809275 0.00011146336328 0.00021360709798 0.00022325724422 0.0001904675737
          0.00024055827816 0.00023903699184 0.00027876446256 0.00030177648296 0.00025168634602 0.00031214946648
          0.00025071122218 0.00025929065305 0.00025266359444 0.00028660480166 0.00025924143847 0.00024877151009
          0.00020279933233 0.00025603422546 0.00027663397486 0.0002504697477 0.00028821377782 0.00027616127045
          0.00032722880132 0.00033718440682 0.00030216210871 0.00035360740731 0.00030182892806 0.00031490621041
          0.00030251237331 0.00034719929681 0.00032639410347 0.00030114728725 0.00026757951127 3.6732602894e-05
          -0.0002050386538 -0.0003625220852 -5.9709538618e-05 0.00016344629694 -5.210685049e-05 0.00023964396678
          -0.00011356425966 0.00013448816026 -0.00013265128655 -0.00023122184211 -0.00013227372256 -0.00032563434797
          -0.00047914878814 -0.00013979105279 -0.00046341348207 -2.8548312912e-05 5.9195121139e-05 4.930313662e-05
          -4.1642462747e-05 -4.456534225e-05 -0.0001245381427 -0.00014737542369 -6.9134337537e-05 0.00023751983827
          0.00046311400365 -0.00017381409998 0.0002891945187 0.00060373678571 7.9039178672e-05 1.6655309082e-05
          -0.0002439138625 -0.00043379847193 2.647799738e-05 -0.00044015969615 8.9640358055e-05 2.3420663638e-05
          -0.00054633343825 0.00014357942564 -0.00024541170569 -0.00030619319296 0.00015112114488 0.00016325639444
          0.00031805003528 0.00034441307071 7.6987089415e-05 0.00011988609913 0.00043855706463 0.00053253088845
          0.00069929641904 0.0008338894695 0.00023476654314 0.00020448667055 0.00058908498613 0.00079959369032
          -0.00022229670139 0.0003167714749 0.00067253864836 -2.2927849841e-06 -0.00052135455189 2.0487390429e-05
          -0.00060947769089 0.00015681161312 -0.0003441379522 0.00017325252702 0.00037432988756 0.00014076677326
          0.00058649858693 0.0009180745692 0.00020601107099 0.00090547319269 -0.00025602063397 0.00033331901068
          0.00072009518044 -1.3479493646e-05 -0.00058239581995 1.4615639884e-05 -0.00067282863893 0.00016252118803
          -0.00038242476876 0.0001792080584 0.00039903415018 0.00014547420142 0.00063594873063 0.00099522073288
          0.00021234410815 0.00097642530454 -0.00028339654091 0.00034358017729 0.0007517625927 -2.5730896596e-05
          -0.00062963366508 8.8180358944e-06 -0.00071442185435 0.00016537158808 -0.00040873949183 0.00018089947116
          0.0004124486004 0.0001498471247 0.00066442252137 0.0010411361 0.00021154769638 0.0010262408759
          -0.00030061104917 0.00034486141521 0.00076393067138 -3.5535485949e-05 -0.00065712601645 2.3217960461e-06
          -0.0007383460179 0.000163540215 -0.00042545376346 0.00017802235379 0.00041489166324 0.00014891855244
          0.00067478255369 0.0010597141227 0.00020667682111 0.0010474676965 -0.00030889437767 0.00033769718721
          0.00075723131886 -4.4049993448e-05 -0.00066658074502 -5.0998501138e-06 -0.00074462307384 0.00015692781017
          -0.00043272320181 0.00017039921659 0.00040649843868 0.00014335504966 0.00066652812529 0.0010505875107
          0.00019698381948 0.0010418706806 -0.0003086491779 0.00032203682349 0.00073209492257 -5.1341678045e-05
          -0.00065871491097 -1.3600538296e-05 -0.00073416071245 0.00014556813403 -0.00043111355626 0.00015800590336
          0.00038734113332 0.00013302131265 0.00064022850711 0.0010146165732 0.00018254644237 0.0010099323699
          -0.00030076655094 0.00029828344123 0.00068960885983 -5.7791450672e-05 -0.00063504884019 -2.3356578822e-05
          -0.00070840335684 0.00012952522957 -0.00042151022353 0.00014093414939 0.00035798674799 0.00011801489018
          0.00059691700153 0.00095348706236 0.00016342662275 0.00095337204402 -0.00028635951458 0.00026700794115
          0.0006313509075 -6.3775041781e-05 -0.00059758068528 -3.452470628e-05 -0.00066930358298 0.0001090220976
          -0.00040507348604 0.00011939721298 0.00031923371716 9.8551878182e-05 0.00053814722924 0.00086962670321
          0.00013984690304 0.00087453855667 -0.00026681739837 0.00022900328622 0.00055939011509 -6.9741938205e-05
          -0.00054882525001 -4.7260404244e-05 -0.00061929982621 8.4371698904e-05 -0.00038323336048 9.3712063972e-05
          0.00027216790477 7.4945797678e-05 0.00046593882143 0.00076618324965 0.00011212100071 0.00077651278116
          -0.00024377868976 0.00018524260668 0.00047623267164 -7.6203788922e-05 -0.00049177452456 -6.172448775e-05
          -0.00056129763834 5.5981498008e-05 -0.0003576836607 6.4285144617e-05 0.00021811256011 4.7603069106e-05
          0.0003827457258 0.00064696092159 8.065518341e-05 0.00066300947219 -0.00021912102238 0.0001368545345
          0.00038477091584 -8.3740946138e-05 -0.00042986214976 -7.8093617049e-05 -0.0004986297572 2.4326383937e-05
          -0.0003303635167 3.1592167943e-05 0.00015859988343 1.6997810235e-05 0.00029139805702 0.00051634456031
          4.592420737e-05 0.00053831236437 -0.00019494249136 8.508956671e-05 0.000288219715 -9.3007169198e-05
          -0.00036691999412 -9.6571799077e-05 -0.00043501611799 -1.0070742064e-05 -0.00030344066909 -3.8437897274e-06
          9.5329480246e-05 -1.6348141799e-05 0.00019504148804 0.00037921138573 8.4501743913e-06 0.0004071862495
          -0.00017354257579 3.1283198041e-05 0.00019004881324 -0.00010473217117 -0.00030713016167 -0.00011740159971
          -0.00037451766548 -4.6664346883e-05 -0.00027929036878 -4.1476334445e-05 3.0124372643e-05 -5.1889826864e-05
          9.7070020274e-05 0.00024083563767 -3.1221505196e-05 0.00027478358243 -0.00015740659728 -2.3177088224e-05
          9.3912552984e-05 -0.00011973752407 -0.00025498110335 -0.00014088129683 -0.00032149298931 -8.4909253928e-05
          -0.00026047774008 -8.076163067e-05 -3.5109133023e-05 -8.9084758656e-05 1.0579843774e-06 0.00010679239494
          -7.2548697062e-05 0.00014655009727 -0.00014917197404 -7.6915894169e-05 3.5601137824e-06 -0.00013890393893
          -0.00021519567235 -0.0001673631632 -0.00028052885318 -0.00012429807975 -0.00024972404935 -0.00012118671293
          -9.8456279375e-05 -0.00012742089166 -8.9329376351e-05 -1.7171489162e-05 -0.00011501937115 2.8096657843e-05
          -0.00015169900144 -0.00012852500367 -7.7158729255e-05 -0.00016332753876 -0.00019281293498 -0.00019734860689
          -0.00025655687205 -0.00016437552404 -0.00024998511071 -0.00016229960602 -0.00015792333579 -0.00016646676522
          -0.00017031564494 -0.00012508343207 -0.00015816601808 -7.4769814091e-05 -0.00016777841665 -0.00017685633793
          -0.00014463881962 -0.00019393872935 -0.00019277045794 -0.00023122027051 -0.00025409675436 -0.00020471327298
          -0.00026403419906 -0.00020373848383 -0.00021196443413 -0.00020568969194 -0.00023848937417 -0.0002115615498
          -0.00020179757848 -0.00015653266746 -0.00020061118994 -0.00022063910728 -0.00019504666852 -0.00023200044234
          -0.00022030121181 -0.00027009050245 -0.00027991103707 -0.00024559537997 -0.00029589753831 -0.00024526225752
          -0.00025798619026 -0.00024594544084 -0.00028948939871 -0.00026912064641 -0.00024458038388 -0.00021171940898
          -6.6782697104e-05 0.00017431475862 0.00033246350358 2.8852853575e-05 -0.0001939029753 2.1020094209e-05
          -0.00027101079468 8.2585131167e-05 -0.00016586478159 0.00010177500371 0.0002001382818 0.00010130312148
          0.00029429071583 0.0004479046911 0.00010879795445 0.0004330225056 1.0017439536e-06 -8.6643216491e-05
          -7.7805692854e-05 1.5195432752e-05 1.7581680368e-05 9.5948533271e-05 0.00011972305947 0.00012781836267
          -8.9357572506e-06 -0.00014586109319 -8.9647335699e-05 -9.3096305136e-06 7.1912058047e-05 -9.3409935289e-06
          0.00010093574383 -9.3655371529e-06 0.00014886136341 -0.00016692587815 -8.8929691628e-06 -0.00011865969282
          0.00042038800893 -6.0348238549e-06 -0.00043239741353 -0.00025439038291 -5.9322755988e-06 0.00024236753234
          -5.9251183302e-06 0.00026424467796 -5.9185672399e-06 0.00043329273467 -0.00044529902516 -6.047421266e-06
          -0.00027626549127 0.00065587792778 -3.5125119666e-06 -0.00066289433744 -0.00039570743684 -3.5113027934e-06
          0.00038874213351 -3.5073414892e-06 0.00040442615864 -3.514721584e-06 0.00066566950409 -0.0006726855645
          -3.5086377466e-06 -0.0004113932082 0.0008063223213 -1.6246884798e-06 -0.00080954405712 -0.00048946618335
          -1.5939021978e-06 0.00048630210222 -1.5889270344e-06 0.00049611070426 -1.592827175e-06 0.00081235944526
          -0.00081558030797 -1.6253393369e-06 -0.00049927347573 0.0012389593758 -4.6054782388e-07 -0.0012398407562
          -0.00074179493822 -4.1843452436e-07 0.00074100191705 -4.1019396235e-07 0.0007456773892 -4.1851487254e-07
          0.0012418429833 -0.001242723316 -4.5997276743e-07 -0.00074647029396 0 0
          0 0 0 0 0 0
          0 0 0 0 0
        </DataArray>
        <DataArray type="Float32" Name="uz" format="ascii" RangeMin="-0.2489284724" RangeMax="0.24892793596">
          0.045252345502 0.041670225561 0.039421051741 -2.0282188018e-07 -0.045253239572 -0.039421781898
          -0.041669879109 0.045278988779 0.04291407764 0.028023485094 4.835587788e-07 -0.042911317199
          -0.04527856037 -0.028022047132 0.042944930494 0.028029089794 -0.042947635055 -0.028030222282
          0.035860206932 5.1100431619e-07 -0.03585941717 0.035923495889 -0.035921610892 -0.035912510008
          -5.3847088566e-07 0.035910472274 1.0336608369e-07 -0.18080385029 -0.16487947106 -0.18080201745
          -0.18816672266 -0.16833819449 -0.18820512295 -0.15880712867 -0.16085484624 -0.16864976287
          -0.17319241166 -0.13306127489 -0.12925899029 -0.14896613359 -0.12883901596 -0.12410148233
          -0.14868010581 -0.11709615588 -0.10870505869 -0.14897303283 -0.1486492455 -0.13914009929
          -0.1364505887 -0.14894331992 -0.14873629808 -0.11711007357 -0.10874699056 -0.12926362455
          -0.12409843504 -0.14896190166 -0.14875748754 -0.1686347425 -0.1731556654 -0.17176945508
          -0.16042031348 -0.17178079486 -0.15611734986 -0.16313844919 -0.137881428 -0.135181427
          -0.14914694428 -0.12654314935 -0.14915111661 -0.1421880424 -0.14914637804 -0.12655776739
          -0.13518373668 -0.14915631711 -0.16312083602 -0.16167239845 -0.15549747646 -0.16167739034
          -0.15315429866 -0.15697592497 -0.14322024584 -0.14174418151 -0.14935810864 -0.13703204691
          -0.14935877919 -0.14556646347 -0.14935639501 -0.13704170287 -0.14174342155 -0.14936180413
          -0.15696746111 -0.15081369877 -0.15016834438 -0.15081894398 -0.14993105829 -0.15033249557
          -0.14892658591 -0.14876489341 -0.14954781532 -0.14827637374 -0.14954797924 -0.14916361868
          -0.14954742789 -0.14828073978 -0.14876124263 -0.14954657853 -0.15033020079 -0.13948433101
          -0.1446018815 -0.1394880563 -0.14655674994 -0.1433943063 -0.15484879911 -0.15605525672
          -0.14972649515 -0.15996274352 -0.14972470701 -0.15288969874 -0.14972795546 -0.15996210277
          -0.15604832768 -0.14972065389 -0.14339931309 -0.12799046934 -0.13894629478 -0.12799324095