<VTKFile type="UnstructuredGrid" version="1.0" byte_order="LittleEndian" header_type="UInt64">
  <UnstructuredGrid>
    <Piece NumberOfPoints="791" NumberOfCells="973">
      <PointData>
        <DataArray type="Float32" Name="ux" format="ascii" RangeMin="-0.80687010288" RangeMax="1.1728994846">
          0.78635209799 0.83565658331 0.79197597504 0.77704441547 0.78728538752 0.7915494442
          0.83700972795 0.83236175776 0.89896357059 0.87325465679 0.83388459682 0.90180748701
          0.83383446932 0.87448906898 0.74431157112 0.75137782097 0.74420160055 0.75097882748
          0.87635707855 0.90051835775 0.87782472372 0.92073106766 0.92324477434 0.7437146306
          0.74560445547 0.74579173326 0.8024879694 0.65020501614 0.70504081249 0.72141516209
          0.75345408916 0.80636370182 0.82354694605 0.64176398516 0.74405288696 0.59529948235
          0.6991609931 0.70501190424 0.77949625254 0.74517542124 0.80523741245 0.87754738331
          0.8451384306 0.72104728222 0.81972277164 0.68792188168 0.78898793459 0.64242786169
          0.74416321516 0.80315619707 0.90211910009 0.65189480782 0.75252228975 0.59750586748
          0.6999001503 0.57601183653 0.67939919233 0.78071606159 0.88134813309 0.5063803792
          0.56085133553 0.57796448469 0.49688443542 0.45033487678 0.56058579683 0.63583409786
          0.60106950998 0.57703256607 0.54333198071 0.49712595344 0.65935951471 0.50683104992
          0.45132237673 0.42983821034 0.63712137938 0.33004203439 0.38417229056 0.40158581734
          0.31987145543 0.27316734195 0.38404622674 0.4597209096 0.42439958453 0.40120443702
          0.36648234725 0.31988084316 0.48261645436 0.33010014892 0.27344286442 0.25183358788
          0.46019983292 0.13457968831 0.18807344139 0.20580172539 0.1235871464 0.077033914626
          0.18790441751 0.26371872425 0.2280113399 0.2055746913 0.17017960548 0.12341418862
          0.28591570258 0.13405759633 0.076576121151 0.054901346564 0.26369008422 -0.065056726336
          -0.012295908295 0.005704367999 -0.076796889305 -0.12320114672 -0.012421427295 0.063260100782
          0.027268046513 0.0058227516711 -0.030292347074 -0.077185682952 0.084666840732 -0.066014520824
          -0.12428426743 -0.14607964456 0.06259432435 -0.25531801581 -0.20308856666 -0.18480664492
          -0.26764798164 -0.31396016479 -0.20292846859 -0.1271854192 -0.16359254718 -0.18411202729
          -0.2210971415 -0.26807627082 -0.10644658655 -0.25635576248 -0.31546348333 -0.33745741844
          -0.12839998305 -0.4215503633 -0.36946135759 -0.35085362196 -0.43441644311 -0.4808767736
          -0.36913844943 -0.293194592 -0.32996425033 -0.34978720546 -0.38761377335 -0.4348834455
          -0.27298849821 -0.42261633277 -0.48267829418 -0.50490319729 -0.29486143589 -0.5509327054
          -0.49971753359 -0.48106887937 -0.56415587664 -0.61015659571 -0.49935236573 -0.4240474999
          -0.46072253585 -0.47985747457 -0.51782041788 -0.56474351883 -0.40437936783 -0.55226516724
          -0.61234968901 -0.63448745012 -0.42596971989 -0.63498699665 -0.58476752043 -0.56609129906
          -0.64848291874 -0.69387251139 -0.58460444212 -0.51014310122 -0.54642468691 -0.56509649754
          -0.60279214382 -0.64924359322 -0.49090886116 -0.63681465387 -0.696436584 -0.71829456091
          -0.51210159063 -0.66898828745 -0.6192355752 -0.60059034824 -0.68263494968 -0.72764068842
          -0.61906379461 -0.5451117754 -0.58122134209 -0.59954982996 -0.63712573051 -0.68339389563
          -0.52618092299 -0.67092084885 -0.73038947582 -0.75214767456 -0.54712361097 -0.64816409349
          -0.59891360998 -0.58037865162 -0.66171759367 -0.70629221201 -0.59877568483 -0.52553522587
          -0.56128764153 -0.57942515612 -0.61667281389 -0.66246467829 -0.50672137737 -0.65004897118
          -0.7088791728 -0.73050427437 -0.52748519182 -0.57258278131 -0.52336347103 -0.50502961874
          -0.58579820395 -0.63023287058 -0.52326971292 -0.45061987638 -0.48593372107 -0.50429314375
          -0.54103928804 -0.58649355173 -0.43174511194 -0.57427477837 -0.63252615929 -0.65400308371
          -0.4522587955 -0.44701403379 -0.39772039652 -0.37966769934 -0.45979616046 -0.50404930115
          -0.39752861857 -0.32511502504 -0.36027380824 -0.37876534462 -0.41519078612 -0.46038967371
          -0.30608317256 -0.44841197133 -0.50611209869 -0.52739167213 -0.32671293616 -0.27816399932
          -0.22867043316 -0.21086214483 -0.29054483771 -0.33475771546 -0.22853711247 -0.15617921948
          -0.19112230837 -0.21016618609 -0.24603380263 -0.29110455513 -0.13680590689 -0.27951920033
          -0.33666574955 -0.35779508948 -0.15757380426 -0.075409345329 -0.025386111811 -0.0077276919037
          -0.087416000664 -0.1318256408 -0.02537830919 0.047285918146 0.012396758422 -0.0073185539804
          -0.042728953063 -0.087957032025 0.067124836147 -0.076721660793 -0.13354474306 -0.15454076231
          0.046173937619 0.15202639997 0.20274040103 0.22019994259 0.14056043327 0.095857322216
          0.2027862668 0.27564319968 0.24086111784 0.22052910924 0.18540512025 0.14022840559
          0.29605439305 0.15117958188 0.094772495329 0.073619171977 0.27488189936 0.39415162802
          0.44514286518 0.46240016818 0.38315290213 0.3384231925 0.44517460465 0.5178938508
          0.48332923651 0.46260896325 0.42795017362 0.3829177618 0.53863525391 0.39370265603
          0.33778974414 0.31673339009 0.51744115353 0.64251714945 0.69346195459 0.7105281353
          0.63179963827 0.58723396063 0.69337594509 0.76554918289 0.73146569729 0.71042472124
          0.67637532949 0.63171285391 0.78653401136 0.64223223925 0.58699208498 0.56599801779
          0.76552093029 0.89238667488 0.94348245859 0.96047765017 0.88185757399 0.83724427223
          0.94352728128 1.015627861 0.98155510426 0.96054494381 0.92644959688 0.88188618422
          1.0366697311 0.89244836569 0.83724725246 0.81619787216 1.0156106949 0.81740415096
          0.860003829 0.88170725107 0.80069988966 0.76227396727 0.85061734915 0.91639536619
          0.89107114077 0.86017090082 0.83943861723 0.79547864199 0.94336014986 0.79769992828
          0.75149232149 0.73794484138 0.92953723669 0.85260355473 0.91436582804 0.87281501293
          0.83232849836 0.80020320415 0.81642776728 0.76801586151 0.78926354647 0.83235061169
          0.84629237652 0.71008980274 0.75575649738 0.76896375418 0.78105413914 0.70293545723
          0.74450439215 0.66459226608 0.83132761717 0.89248174429 0.86471778154 0.75566798449
          0.81914901733 0.78970062733 0.84350454807 0.76906168461 0.81796365976 0.74146801233
          0.78029114008 0.70283979177 0.91231942177 0.83871221542 0.78625947237 0.70986014605
          0.74249303341 0.66432452202 0.72697156668 0.64756822586 0.8941411972 0.81889307499
          0.5852432251 0.63179332018 0.64591175318 0.57729768753 0.53791695833 0.63159936666
          0.69674873352 0.66654127836 0.64551001787 0.6169051528 0.57711136341 0.71676689386
          0.58461946249 0.53738170862 0.51999354362 0.69686746597 0.41883182526 0.46687319875
          0.48188447952 0.41017073393 0.36909079552 0.46671119332 0.53400063515 0.50262695551
          0.48154753447 0.45133051276 0.41008040309 0.55449062586 0.41852623224 0.36890006065
          0.35026150942 0.53419464827 0.22423359752 0.27371874452 0.2897926271 0.21451611817
          0.17170678079 0.27352878451 0.34317788482 0.31058225036 0.2894705534 0.25738474727
          0.21442607045 0.36395481229 0.2238882035 0.17149466276 0.15175390244 0.34342244267
          0.016900939867 0.067466698587 0.084521964192 0.0062406114303 -0.037928909063 0.067284137011
          0.13881415129 0.10512937605 0.084156088531 0.050461865962 0.0061019100249 0.15969571471
          0.016508297995 -0.038191501051 -0.058934494853 0.13896800578 -0.18830366433 -0.13707010448
          -0.11928479373 -0.19977934659 -0.24493448436 -0.13717919588 -0.064181447029 -0.098796762526
          -0.11946812272 -0.15457032621 -0.19992513955 -0.043283786625 -0.18876282871 -0.24540120363
          -0.26698490977 -0.064164601266 -0.37800520658 -0.32583203912 -0.30711695552 -0.39044228196
          -0.43694937229 -0.32590946555 -0.25101754069 -0.28672230244 -0.30725866556 -0.3439642489
          -0.3906416297 -0.22998990119 -0.37856996059 -0.43751817942 -0.46004930139 -0.2511215806
          -0.53779810667 -0.4848036468 -0.46532952785 -0.551014781 -0.59857648611 -0.48499438167
          -0.40877604485 -0.44522473216 -0.4655867517 -0.50352698565 -0.55121469498 -0.38767015934
          -0.53836882114 -0.59907007217 -0.6224963665 -0.40878292918 -0.65351527929 -0.59935390949
          -0.57907879353 -0.66735970974 -0.71631222963 -0.59957736731 -0.52180790901 -0.55903160572
          -0.579459548 -0.61858081818 -0.66743141413 -0.50037837029 -0.65374773741 -0.71636116505
          -0.74082994461 -0.52157503366 -0.71491831541 -0.65933436155 -0.6383920908 -0.72919940948
          -0.77950972319 -0.65948724747 -0.5797778964 -0.61801052094 -0.63874381781 -0.67914551497
          -0.72915935516 -0.55777531862 -0.7148321867 -0.77922034264 -0.80466222763 -0.57939440012
          -0.71544843912 -0.65890687704 -0.63750004768 -0.72999477386 -0.78129810095 -0.65911084414
          -0.57827419043 -0.61695724726 -0.63801366091 -0.67901349068 -0.72993206978 -0.55589157343
          -0.71534979343 -0.78090077639 -0.80687010288 -0.57768666744 -0.65328377485 -0.5964923501
          -0.57508671284 -0.66776829958 -0.71925395727 -0.59667462111 -0.51574540138 -0.55441266298
          -0.57562589645 -0.61660963297 -0.66762471199 -0.49319621921 -0.65299487114 -0.71865159273
          -0.74472635984 -0.51497763395 -0.52974146605 -0.4731464982 -0.45202916861 -0.54392361641
          -0.59506952763 -0.47332260013 -0.39270672202 -0.43116566539 -0.45251271129 -0.49309098721
          -0.54378730059 -0.37010595202 -0.52939462662 -0.59442961216 -0.62021541595 -0.39196062088
          -0.35066729784 -0.29403552413 -0.27320793271 -0.36438030005 -0.41533783078 -0.29419764876
          -0.21384719014 -0.25205945969 -0.27377638221 -0.31381839514 -0.36423903704 -0.19106961787
          -0.35030776262 -0.41463062167 -0.44010254741 -0.21307387948 -0.12529471517 -0.068642795086
          -0.048307251185 -0.13848368824 -0.18903370202 -0.068766087294 0.011579782702 -0.026565097272
          -0.048688430339 -0.088209569454 -0.13834849 0.034538418055 -0.12496982515 -0.18844148517
          -0.21340094507 0.012200633995 0.13478884101 0.19170689583 0.21159884334 0.12211929262
          0.071736454964 0.19179967046 0.27213534713 0.23403508961 0.21156185865 0.17238591611
          0.12233437598 0.2952285111 0.13527581096 0.072301760316 0.047737050802 0.27248296142
          0.41827470064 0.47512027621 0.4945435524 0.40604716539 0.35608437657 0.47517684102
          0.55548775196 0.51743924618 0.49457016587 0.45600798726 0.40617921948 0.57866322994
          0.41854959726 0.35637453198 0.3323109746 0.55560213327 0.71391534805 0.77073472738
          0.78979450464 0.70207458735 0.65233176947 0.77078711987 0.85090970993 0.81304222345
          0.78986245394 0.75177663565 0.70217835903 0.87427669764 0.71412587166 0.65253353119
          0.6288921833 0.8509722352 1.0127683878 1.0694770813 1.0884354115 1.0010745525
          0.95148009062 1.0694698095 1.1495527029 1.111726284 1.0884394646 1.050567627
          1.0010501146 1.1728994846 1.0127702951 0.95150929689 0.92810052633 1.1495059729
          0.82100391388 0.8604516983 0.87677365541 0.80983328819 0.77512085438 0.8573743701
          0.91580671072 0.89005643129 0.86853629351 0.84507727623 0.80803954601 0.93552541733
          0.81320774555 0.77076488733 0.75643402338 0.91992771626 0.85331624746 0.91395515203
          0.87480223179 0.83225911856 0.80169081688 0.81986439228 0.77144342661 0.72205507755
          0.73409086466 0.72124224901 0.69140034914 0.69779878855 0.69141232967 0.67673009634
          0.6589025259 0.65643632412 0.63539779186 0.63393115997 0.62608987093 0.65759366751
          0.52783715725 0.53449428082 0.52789741755 0.509593606 0.51253259182 0.50932043791
          0.49834051728 0.48680496216 0.48406088352 0.46828526258 0.46793118119 0.46083164215
          0.48643353581 0.32857918739 0.33323067427 0.32924091816 0.31839627028 0.31878069043
          0.31786519289 0.30964845419 0.30330687761 0.30026826262 0.28988140821 0.29022532701
          0.28521537781 0.30324995518 0.15828411281 0.16079704463 0.15948158503 0.15492662787
          0.15325769782 0.15410073102 0.14819674194 0.14587794244 0.14264984429 0.13621976972
          0.13712498546 0.13345587254 0.14612965286 0.042390357703 0.043669495732 0.045018468052
          0.046126864851 0.041126422584 0.044343296438 0.039175059646 0.041453514248 0.03682969138
          0.033556308597 0.035621989518 0.03245356679 0.042131524533 0 0
          0 0 0 0 0 0
          0 0 0 0 0
        </DataArray>
        <DataArray type="Float32" Name="uy" format="ascii" RangeMin="-0.64364391565" RangeMax="0.46198970079">
          -0.19473168254 -0.20275588334 -0.20868015289 -0.26406657696 -0.33800071478 -0.33654379845
          -0.33987897635 -0.19376316667 -0.19750124216 -0.22147938609 -0.26417899132 -0.34301108122
          -0.33909219503 -0.3122421205 -0.20134438574 -0.22220146656 -0.33796042204 -0.31062158942
          -0.21430025995 -0.27046862245 -0.33425068855 -0.21393358707 -0.33403170109 -0.33199718595
          -0.26992771029 -0.21607044339 -0.26323005557 -0.5343247056 -0.4814556241 -0.53662192822
          -0.61291843653 -0.56022018194 -0.61496812105 -0.45981624722 -0.53903585672 -0.49140644073
          -0.57040888071 -0.37310680747 -0.35836485028 -0.42682537436 -0.45354953408 -0.43858996034
          -0.50612193346 -0.3188611567 -0.40025144815 -0.42711988091 -0.50667697191 -0.39423060417
          -0.47445014119 -0.42603573203 -0.50534272194 -0.32106158137 -0.40270850062 -0.36197191477
          -0.44262552261 -0.42607274652 -0.50563275814 -0.49499931931 -0.57372194529 -0.43353870511
          -0.37966409326 -0.43516248465 -0.35803508759 -0.39064946771 -0.27003601193 -0.25565105677
          -0.32453131676 -0.21515278518 -0.32473391294 -0.2912991643 -0.32394239306 -0.21678490937
          -0.25831383467 -0.32406547666 -0.39316472411 -0.31682443619 -0.26240092516 -0.31769031286
          -0.24115419388 -0.27439546585 -0.15242403746 -0.13856823742 -0.20721396804 -0.097274683416
          -0.20739294589 -0.1737421006 -0.20691132545 -0.098320305347 -0.14039322734 -0.20726245642
          -0.27572822571 -0.19415208697 -0.13930523396 -0.19428730011 -0.11836868525 -0.1523373723
          -0.029339976609 -0.016216820106 -0.084301583469 0.025754855946 -0.084349870682 -0.050535216928
          -0.084397412837 0.025387492031 -0.016859499738 -0.084705546498 -0.15241920948 -0.075395382941
          -0.02033941634 -0.074783660471 0.00026765165967 -0.034204386175 0.089261963964 0.10160461813
          0.034244440496 0.14417029917 0.034369606525 0.068318881094 0.033830609173 0.14458695054
          0.10229339451 0.033734608442 -0.033254537731 0.030605243519 0.086033627391 0.031865555793
          0.10630492866 0.071345262229 0.19568106532 0.20745851099 0.1405518651 0.25055137277
          0.14069275558 0.17480780184 0.13999390602 0.2516207993 0.20922595263 0.13974218071
          0.07342416048 0.118846789 0.17474415898 0.12073197216 0.19477692246 0.15929691494
          0.28444129229 0.29574397206 0.22921018302 0.33939886093 0.22937847674 0.26365888119
          0.22844587266 0.34108024836 0.29845151305 0.22816847265 0.16240571439 0.18673481047
          0.24241890013 0.1890757829 0.26211765409 0.22652037442 0.35132128 0.36220493913
          0.29639682174 0.40582409501 0.29664102197 0.33076706529 0.29563635588 0.4079041481
          0.36554893851 0.29523521662 0.23041397333 0.22958453 0.28477877378 0.23225001991
          0.30410504341 0.26876464486 0.39231953025 0.40285336971 0.33801180124 0.4461273849
          0.33828997612 0.37214112282 0.33716258407 0.44850367308 0.40658462048 0.33686003089
          0.2730267942 0.24424079061 0.29927375913 0.24718087912 0.31827187538 0.28288412094
          0.40606048703 0.41634953022 0.35216656327 0.45946264267 0.35232204199 0.38593760133
          0.35130119324 0.46198970079 0.42029580474 0.35067844391 0.28781011701 0.23012499511
          0.2846108079 0.23300294578 0.30349552631 0.26849198341 0.39032641053 0.40052041411
          0.33697336912 0.44318673015 0.33721017838 0.37045952678 0.33612969518 0.4456603229
          0.40445661545 0.33568429947 0.27324989438 0.1874756366 0.2415677011 0.1901358664
          0.26034194231 0.22577767074 0.34645590186 0.35674446821 0.29356497526 0.39890512824
          0.29378539324 0.32673016191 0.29283922911 0.40124553442 0.36040115356 0.29233047366
          0.23019731045 0.11986989528 0.17347484827 0.12216278911 0.19236576557 0.15820938349
          0.27803745866 0.28861811757 0.22539803386 0.33036285639 0.22552129626 0.2582590282
          0.22473450005 0.33233782649 0.29158714414 0.22419074178 0.16204486787 0.029502905905
          0.082884155214 0.031378559768 0.10194036365 0.068050064147 0.18756909668 0.19847659767
          0.13487477601 0.23997180164 0.13501191139 0.16768327355 0.13433670998 0.24148504436
          0.20082083344 0.13379223645 0.071193911135 -0.081937044859 -0.028725851327 -0.080517843366
          -0.009370546788 -0.04298158735 0.076324217021 0.087666489184 0.02351100184 0.12899084389
          0.023611525074 0.056279778481 0.023050555959 0.13006648421 0.089292325079 0.022599874064
          -0.04059940204 -0.21077078581 -0.1575306952 -0.20986968279 -0.13787223399 -0.17125688493
          -0.051923844963 -0.04019010812 -0.10493453592 0.00093839498004 -0.10490456223 -0.07214101404
          -0.10523351282 0.0016025309451 -0.039187047631 -0.1056098491 -0.16972817481 -0.35032457113
          -0.29742622375 -0.34993579984 -0.27753284574 -0.31047326326 -0.19194678962 -0.17983140051
          -0.24478238821 -0.1391608566 -0.24476024508 -0.21214726567 -0.24495059252 -0.13890101016
          -0.17945550382 -0.24520602822 -0.30978122354 -0.49565908313 -0.44316288829 -0.49553453922
          -0.42322105169 -0.45579087734 -0.33826088905 -0.32597351074 -0.39075896144 -0.28576874733
          -0.39070355892 -0.35828009248 -0.39084231853 -0.28569859266 -0.32585003972 -0.39087054133
          -0.45550888777 -0.64364391565 -0.59113734961 -0.64359951019 -0.57119852304 -0.60364031792
          -0.48626825213 -0.47391781211 -0.53869080544 -0.4338337481 -0.53875696659 -0.50629723072
          -0.53867840767 -0.43382522464 -0.47390136123 -0.53882586956 -0.60350626707 -0.57870328426
          -0.53427755833 -0.5813678503 -0.51600205898 -0.54254817963 -0.44464311004 -0.43181329966
          -0.48867729306 -0.39977324009 -0.48905226588 -0.46224233508 -0.48830893636 -0.40255466104
          -0.43616887927 -0.48847153783 -0.54626595974 -0.32524779439 -0.32261836529 -0.31565698981
          -0.33333331347 -0.32837918401 -0.31734862924 -0.32434386015 0.06622736156 0.023202544078
          0.06793269515 0.064860165119 0.020901609212 0.06706161052 0.0059956684709 0.0029431004077
          0.032130368054 0.029768880457 -0.065611086786 -0.077639557421 -0.02136467956 -0.070507533848
          -0.082885719836 -0.024815749377 -0.11058209836 -0.11691898108 -0.021093294024 -0.024715870619
          -0.047619897872 -0.052109912038 -0.021304983646 -0.024839751422 -0.10794415325 -0.11436456442
          -0.073216080666 -0.078562736511 -0.020505797118 -0.024212939665 0.034869138151 0.033088468015
          0.06808668375 0.022508148104 0.069967783988 0.004061694257 0.0319073461 -0.071511380374
          -0.083921648562 -0.024528447539 -0.11909351498 -0.024452632293 -0.052848126739 -0.024467879906
          -0.11700426787 -0.080383211374 -0.024161977693 0.034860797226 0.075476028025 0.027662586421
          0.076772883534 0.0087486719713 0.038041632622 -0.069932334125 -0.082392759621 -0.021203603595
          -0.118975088 -0.021105190739 -0.050731360912 -0.021222392097 -0.11748915911 -0.07980825007
          -0.020799597725 0.039981737733 0.083912953734 0.033753819764 0.084474265575 0.014348709024
          0.045227151364 -0.067310512066 -0.079757735133 -0.016839057207 -0.11801999807 -0.016758266836
          -0.047724962234 -0.016975672916 -0.11725170165 -0.078442543745 -0.016617417336 0.04599385336
          0.090785995126 0.038676597178 0.090568490326 0.018946364522 0.05114601925 -0.065063983202
          -0.077325709164 -0.013205042109 -0.11704679579 -0.013194048777 -0.04520117864 -0.013257361017
          -0.11700487137 -0.077257923782 -0.012988843024 0.050833038986 0.097584538162 0.043833579868
          0.096689879894 0.023957606405 0.057472188026 -0.062320239842 -0.074340045452 -0.0092683238909
          -0.11525952816 -0.0092213749886 -0.042139139026 -0.0092238886282 -0.11594729125 -0.075358711183
          -0.0087930569425 0.055847287178 0.10955939442 0.053886339068 0.10792113841 0.033710546792
          0.06857137382 -0.0551424101 -0.067095704377 -0.00066177046392 -0.10939927399 -0.000564230897
          -0.034559607506 -0.00055044464534 -0.11070858687 -0.069106370211 -6.6894375777e-05 0.065823279321
          0.12636494637 0.069177784026 0.12410670519 0.048745065928 0.084643945098 -0.041867211461
          -0.053665015846 0.013655131683 -0.096999280155 0.013713262975 -0.021203385666 0.01366919186
          -0.099064581096 -0.056897737086 0.013943335973 0.080870382488 0.14573676884 0.086773209274
          0.14296743274 0.065892294049 0.10291422158 -0.026834752411 -0.038586739451 0.029932877049
          -0.082977667451 0.029951136559 -0.0059590055607 0.029928831384 -0.085613161325 -0.042855545878
          0.029991390184 0.098451331258 0.16519638896 0.10454469174 0.1622530967 0.083053857088
          0.12108768523 -0.012152064592 -0.024161219597 0.046114426106 -0.069695718586 0.0461226888
          0.0091462498531 0.046027369797 -0.072617352009 -0.028907043859 0.045964159071 0.11639587581
          0.18017320335 0.11837986857 0.17701737583 0.096574835479 0.1352763623 -0.00024684713571
          -0.0124468375 0.058950230479 -0.058668918908 0.058986339718 0.021340858191 0.058688979596
          -0.061814244837 -0.017528168857 0.058644734323 0.13016730547 0.18656846881 0.12457247078
          0.18344436586 0.10275881737 0.14151850343 0.0056779300794 -0.0066920905374 0.064903087914
          -0.052849788219 0.065058849752 0.027385396883 0.064539715648 -0.055904313922 -0.011568660848
          0.064740106463 0.13634878397 0.18256804347 0.12121779472 0.179828614 0.099383622408
          0.13766786456 0.002914886456 -0.0096585890278 0.061875831336 -0.055443856865 0.062044721097
          0.024602469057 0.061476737261 -0.058158744127 -0.013981125318 0.061627954245 0.13314090669
          0.16890051961 0.10800603777 0.16660957038 0.086070336401 0.12394440174 -0.009942789562
          -0.022700468078 0.04885084182 -0.068172678351 0.048938520253 0.011728832498 0.048492889851
          -0.070485733449 -0.026357356459 0.048535600305 0.1202384457 0.14636424184 0.086164839566
          0.14467948675 0.064124964178 0.10146012157 -0.031410831958 -0.044420000166 0.02720297128
          -0.089620277286 0.027283029631 -0.0095915328711 0.02694575116 -0.091325603426 -0.047152526677
          0.02694763802 0.098789773881 0.11701925099 0.057369731367 0.11591532826 0.035216674209
          0.072179213166 -0.059868432581 -0.073116019368 -0.0013829406817 -0.11806697398 -0.0013355421834
          -0.037919763476 -0.001611161395 -0.11932555586 -0.07505428046 -0.0016265772283 0.070346958935
          0.081543564796 0.022552633658 0.080931842327 0.00031159556238 0.03683321923 -0.09440548718
          -0.10785150528 -0.035975188017 -0.15265904367 -0.035935789347 -0.072326377034 -0.036067444831
          -0.15333884954 -0.1090008989 -0.036205489188 0.035911370069 0.042168106884 -0.016419246793
          0.041961561888 -0.038638535887 -0.0023933381308 -0.13311059773 -0.14674299955 -0.074814222753
          -0.19130913913 -0.074782915413 -0.11089777946 -0.074855871499 -0.19148725271 -0.14708571136
          -0.0747756809 -0.0027739538345 0.0028921633493 -0.055354602635 0.0028549046256 -0.077588193119
          -0.041607338935 -0.17184785008 -0.18553927541 -0.11358699203 -0.23006279767 -0.11360555887
          -0.14961789548 -0.11352674663 -0.23010766506 -0.18562106788 -0.11359096318 -0.041618466377
          -0.005413361825 -0.038557730615 -0.0033729211427 -0.052344318479 -0.032139983028 -0.10862724483
          -0.11817862093 -0.073603309691 -0.14429967105 -0.07350449264 -0.094305686653 -0.073444627225
          -0.14187255502 -0.11421547085 -0.072918333113 -0.029125453904 -0.22740310431 -0.23066489398
          -0.24025778472 -0.21534390748 -0.22298152745 -0.23930203915 -0.22993575037 -0.25809535384
          -0.22468602657 -0.19121342897 -0.17290367186 -0.22473186255 -0.27700340748 -0.22471471131
          -0.17491799593 -0.22460520267 -0.19462314248 -0.25419151783 -0.22434926033 -0.27476543188
          -0.1886562109 -0.16670095921 -0.14500309527 -0.13165988028 -0.16685540974 -0.20218260586
          -0.16681174934 -0.13174468279 -0.16677808762 -0.14501616359 -0.18819047511 -0.16649278998
          -0.20192956924 -0.1195237115 -0.10653475672 -0.093103639781 -0.083665162325 -0.10611800104
          -0.12827137113 -0.10604055226 -0.082486927509 -0.10603303462 -0.091144926846 -0.1212060377
          -0.10633522272 -0.12931653857 -0.059417184442 -0.053426612169 -0.046860836446 -0.040497075766
          -0.052800908685 -0.06444606185 -0.052676081657 -0.038234356791 -0.052755277604 -0.043179340661
          -0.062915027142 -0.053267214447 -0.066607736051 -0.016447396949 -0.016977882013 -0.016279581934
          -0.011389536783 -0.015577158891 -0.018440775573 -0.015279592946 -0.0073311612941 -0.015499826521
          -0.0093748904765 -0.022886946797 -0.016737231985 -0.022367300466 0 0
          0 0 0 0 0 0
          0 0 0 0 0
        </DataArray>
        <DataArray type="Float32" Name="uz" format="ascii" RangeMin="-0.17113423347" RangeMax="0.20669822395">
          0.034241355956 0.033839304 0.025620343164 0.0014056768268 -0.029289979488 -0.021132566035
          -0.019725749269 0.0406617634 0.038477960974 0.033902972937 0.0096129542217 -0.01314961724
          -0.023562245071 -0.0069516631775 0.023251075298 0.017454175279 -0.026213428006 -0.022374777123
          0.030340127647 0.014513236471 -0.012137391604 0.034288175404 -0.0093656638637 -0.020972868428
          -0.0034308414906 0.018094111234 0.0054488074966 0.086233310401 0.029681181535 0.054856270552
          0.057806316763 0.019764840603 0.03425739333 0.045638736337 0.032976672053 0.086821690202
          0.06064967066 -0.03528091684 -0.076645620167 -0.020318893716 -0.020410286263 -0.049274288118
          -0.013784070499 -0.076265953481 -0.045075565577 0.0050675058737 0.005152230151 0.0055769570172
          0.0076745259576 -0.045948486775 -0.032508332282 -0.044518109411 -0.022730091587 0.0060817087069
          0.01010944508 0.056141957641 0.042146902531 0.0042500025593 -0.00029051207821 0.10969319195
          0.038330815732 0.071784436703 0.0561982207 0.10778333992 -0.047145493329 -0.09784591198
          -0.025599811226 -0.099857769907 0.0050397929735 0.0034140732605 -0.056619681418 -0.061720337719
          0.0017897030339 0.066521823406 0.0082645770162 0.12484910339 0.043747056276 0.083345942199
          0.062215078622 0.12051872164 -0.055456284434 -0.11157982796 -0.029023135081 -0.1159779802
          0.0044939960353 0.00092545518419 -0.062955118716 -0.07425981015 -0.0026382512879 0.071709811687
          0.01157552097 0.13042777777 0.045950073749 0.088570147753 0.063512764871 0.12399113178
          -0.059617165476 -0.11668991297 -0.03011097759 -0.12342368811 0.003606777871 -0.001746402937
          -0.064164854586 -0.081452585757 -0.0071191885509 0.071321718395 0.014235307463 0.12667477131
          0.045017257333 0.087720163167 0.060337796807 0.11843638867 -0.059051755816 -0.11289664358
          -0.028752174228 -0.12129919976 0.002723505022 -0.0039846305735 -0.060474995524 -0.082213580608
          -0.010766018182 0.065854765475 0.016177305952 0.11423362792 0.040936440229 0.080379165709
          0.053385302424 0.10527956486 -0.053988393396 -0.10122859478 -0.025423530489 -0.11033679545
          0.0018997949082 -0.0052791489288 -0.052869588137 -0.076438181102 -0.012677375227 0.05675861612
          0.016495605931 0.094012930989 0.033949233592 0.066962197423 0.043275475502 0.085658557713
          -0.044993661344 -0.083078637719 -0.020594393834 -0.091561406851 0.0012115646387 -0.0055513205007
          -0.042562790215 -0.064509376884 -0.012397093698 0.044966693968 0.014722301625 0.067473515868
          0.024621529505 0.048698432744 0.030607942492 0.060817182064 -0.032731056213 -0.059506632388
          -0.014458694495 -0.066358067095 0.00067275785841 -0.0048703523353 -0.029763957486 -0.047564629465
          -0.010353745893 0.031051758677 0.011547259055 0.036323070526 0.013165035285 0.026690805331
          0.015742605552 0.031970251352 -0.01858507283 -0.032567087561 -0.0080214990303 -0.037055917084
          -0.00030278266058 -0.0039127874188 -0.015865027905 -0.027492135763 -0.007554216776 0.01516732201
          0.0067497752607 0.0018835950177 0.00014154675591 0.002130102599 -0.00082588143414 0.00019399434677
          -0.0035470845178 -0.0038216589019 -0.0016223656712 -0.0054055568762 -0.0017674696865 -0.0031093247235
          -0.0015302156098 -0.0056505855173 -0.0044584176503 -0.0022491342388 0.00074474571738 -0.034037046134
          -0.013547909446 -0.023867577314 -0.017853030935 -0.03250400722 0.011977981776 0.025808721781
          0.0048433891498 0.027406267822 -0.0033481577411 -0.0020455077756 0.0131293796 0.017225688323
          -0.00077425915515 -0.019774954766 -0.0058568827808 -0.068223781884 -0.026755431667 -0.048880524933