<VTKFile type="UnstructuredGrid" version="1.0" byte_order="LittleEndian" header_type="UInt64">
  <UnstructuredGrid>
    <Piece NumberOfPoints="791" NumberOfCells="973">
      <PointData>
        <DataArray type="Float32" Name="ux" format="ascii" RangeMin="-0.72159218788" RangeMax="1.1303578615">
          0.15182840824 0.080024883151 0.14510118961 0.16611535847 0.15625692904 0.14753867686
          0.082913897932 0.084605135024 -0.0085868686438 0.026802543551 0.082460559905 -0.0082531943917
          0.087995901704 0.028434565291 0.21589837968 0.20648816228 0.22470876575 0.20779950917
          0.017698088661 -0.0054968721233 0.016579024494 -0.04565192759 -0.049727357924 0.21440687776
          0.22240582108 0.21028923988 0.12630920112 -0.13772495091 -0.20366293192 -0.22401683033
          -0.051345068961 -0.11592237651 -0.13714852929 -0.12580020726 -0.037953075022 -0.069328464568
          0.018213685602 -0.20417311788 -0.29767099023 -0.25325113535 -0.11514595896 -0.20895178616
          -0.16432893276 -0.22545430064 -0.13679693639 -0.1825658679 -0.093459896743 -0.12562431395
          -0.036537047476 -0.32501134276 -0.23560930789 -0.13802421093 -0.048441652209 -0.068446576595
          0.020828939974 -0.042762257159 0.045526430011 -0.29614177346 -0.207282722 -0.19116714597
          -0.25638827682 -0.27737608552 -0.17890016735 -0.1226144433 -0.25684550405 -0.34775680304
          -0.30478388071 -0.27793961763 -0.2352668196 -0.17970958352 -0.37488931417 -0.19309717417
          -0.12433950603 -0.097249239683 -0.34840378165 -0.2299092114 -0.29354679585 -0.31514641643
          -0.21778136492 -0.16224291921 -0.29320976138 -0.37961375713 -0.33967500925 -0.31369107962
          -0.2725635469 -0.21884401143 -0.40658390522 -0.23277115822 -0.16616179049 -0.13912117481
          -0.38239058852 -0.27571719885 -0.3384668529 -0.35932162404 -0.26384678483 -0.20877875388
          -0.33774271607 -0.42397007346 -0.38409897685 -0.35777184367 -0.31779038906 -0.26455843449
          -0.45069691539 -0.27743053436 -0.21223561466 -0.18476329744 -0.42650327086 -0.31414908171
          -0.37657102942 -0.39697343111 -0.30284640193 -0.24889861047 -0.37599766254 -0.46211200953
          -0.42259594798 -0.39541068673 -0.35601639748 -0.30355644226 -0.49013659358 -0.31549203396
          -0.25168997049 -0.22576099634 -0.46470108628 -0.33186101913 -0.39336130023 -0.41317945719
          -0.32014676929 -0.26666978002 -0.39192324877 -0.47561407089 -0.43730786443 -0.41007891297
          -0.37272760272 -0.32019400597 -0.50184363127 -0.33192634583 -0.26876240969 -0.24317981303
          -0.47838142514 -0.32836642861 -0.38335418701 -0.40224337578 -0.31743443012 -0.26896908879
          -0.38279119134 -0.45739650726 -0.42314475775 -0.40036067367 -0.36513745785 -0.31806114316
          -0.48049947619 -0.32950365543 -0.27146032453 -0.24783337116 -0.4599866271 -0.33435285091
          -0.37979578972 -0.39615383744 -0.32444354892 -0.28390276432 -0.37843999267 -0.44117325544
          -0.4127009213 -0.39285737276 -0.36401078105 -0.32467463613 -0.46144393086 -0.33417698741
          -0.28572177887 -0.26573550701 -0.44480374455 -0.35423269868 -0.39216727018 -0.40529373288
          -0.34634104371 -0.31341063976 -0.39128878713 -0.44393149018 -0.42035099864 -0.40265849233
          -0.37908864021 -0.34608158469 -0.46114343405 -0.3529548347 -0.31339770555 -0.29825499654
          -0.44686540961 -0.36233472824 -0.39520987868 -0.40579557419 -0.35583147407 -0.32768914104
          -0.39416852593 -0.44088831544 -0.41955313087 -0.40402451158 -0.38397061825 -0.35497555137
          -0.45513525605 -0.35969045758 -0.32534465194 -0.31336396933 -0.44173428416 -0.33965703845
          -0.3692433238 -0.37873327732 -0.33248519897 -0.30724421144 -0.36874037981 -0.41504684091
          -0.39274442196 -0.37967962027 -0.35900107026 -0.33106788993 -0.42673537135 -0.33588573337
          -0.30263978243 -0.29247847199 -0.41202399135 -0.3081099093 -0.33317708969 -0.34099242091
          -0.30118685961 -0.28025558591 -0.33240744472 -0.37370157242 -0.35353919864 -0.34226176143
          -0.32360088825 -0.29890486598 -0.38312110305 -0.30220240355 -0.27354821563 -0.26622360945
          -0.36959651113 -0.27133688331 -0.28990024328 -0.29431983829 -0.2675357461 -0.25263437629
          -0.28996658325 -0.32032972574 -0.30504575372 -0.29662936926 -0.2836175859 -0.26536035538
          -0.32662802935 -0.26731947064 -0.24711190164 -0.24299940467 -0.31546732783 -0.20190054178
          -0.22031657398 -0.22376151383 -0.2003646642 -0.1858176887 -0.22229585052 -0.24964757264
          -0.23567736149 -0.22807197273 -0.21541130543 -0.19999723136 -0.25621202588 -0.20180539787
          -0.18327748775 -0.17836226523 -0.24511535466 -0.084720797837 -0.11003284901 -0.11578661948
          -0.0819516927 -0.061741374433 -0.10976582021 -0.14639912546 -0.12948925793 -0.11623820662
          -0.10250368714 -0.081012822688 -0.15756006539 -0.082567125559 -0.058614633977 -0.052075300366
          -0.14442941546 0.09853708744 0.068854652345 0.062369391322 0.1016401127 0.1250886023
          0.069331750274 0.027334455401 0.04645172134 0.062261600047 0.077807970345 0.10289212316
          0.014032339677 0.10136831552 0.12765716016 0.1352956444 0.028652349487 0.37010923028
          0.34129855037 0.33488494158 0.37278538942 0.39540809393 0.34146383405 0.30144351721
          0.31974008679 0.33449456096 0.34973368049 0.37346065044 0.28855723143 0.37169763446
          0.39739325643 0.40538063645 0.30282855034 0.71515399218 0.69225376844 0.68640482426
          0.71838223934 0.73704010248 0.69199085236 0.65943533182 0.67471271753 0.68549787998
          0.69901901484 0.71844798326 0.64940726757 0.71566545963 0.73805201054 0.74582320452
          0.66021329165 1.0977224112 1.0748816729 1.0674021244 1.1021852493 1.1218485832
          1.0757488012 1.0436134338 1.0583691597 1.0686670542 1.0825915337 1.1026941538
          1.0346831083 1.0987145901 1.1220099926 1.1303578615 1.043495059 0.10239572078
          0.020779136568 0.017644371837 0.090940110385 0.15746110678 -0.0134875644 -0.10845003277
          -0.043722610921 -0.053223259747 0.025111319497 0.069900579751 -0.11202739924 0.033292908221
          0.11586754024 0.16273297369 -0.063990801573 0.039842143655 -0.051949091256 -0.0024685668759
          0.081926234066 0.12224061787 0.079498201609 0.16264803708 0.071533292532 0.015196342953
          -0.0040280465037 0.11199045181 0.060130346566 0.044289495796 0.083448268473 0.12067239732
          0.13192002475 0.16447097063 0.017546314746 -0.062762498856 -0.026937589049 0.061692431569
          -0.0086347740144 0.022852312773 0.001116294181 0.048123084009 0.034688446671 0.077170237899
          0.084908545017 0.12056843936 -0.089000739157 -0.032121539116 0.076822601259 0.1133358106
          0.13494229317 0.16371005774 0.15616306663 0.18313840032 -0.065875150263 -0.011831435375
          0.20180937648 0.15589089692 0.14125519991 0.20914696157 0.24904744327 0.15691253543
          0.096652723849 0.12317516655 0.14498026669 0.17021651566 0.20857490599 0.075222589076
          0.20103220642 0.2462605685 0.26506620646 0.091986291111 0.33096826077 0.2915263474
          0.27926903963 0.33609804511 0.37013033032 0.2922206521 0.24286809564 0.26442566514
          0.28226920962 0.30366826057 0.33442059159 0.22422450781 0.32690742612 0.36442095041
          0.38174626231 0.23752297461 0.48472803831 0.4547791183 0.44451275468 0.48942369223
          0.51527643204 0.45498609543 0.41640788317 0.4335500598 0.44673100114 0.46443521976
          0.48870122433 0.4032163322 0.48299098015 0.51227164268 0.52487206459 0.41355103254
          0.64389044046 0.62579548359 0.61924529076 0.64934104681 0.66553401947 0.62587559223
          0.59858620167 0.61205726862 0.61823797226 0.63262420893 0.65020394325 0.59249842167
          0.64512717724 0.66736108065 0.67494952679 0.60031688213 0.78500729799 0.77469009161
          0.76952004433 0.79089421034 0.80122888088 0.77439427376 0.75502687693 0.76587253809
          0.76738202572 0.77984410524 0.79203408957 0.75353181362 0.78819620609 0.80576634407
          0.81072962284 0.7592253089 0.86954915524 0.86484652758 0.86133503914 0.87568515539
          0.88140547276 0.86470758915 0.85052937269 0.85935097933 0.85848814249 0.86855715513
          0.87786006927 0.85149931908 0.87457066774 0.88828802109 0.89038407803 0.85539239645
          0.88721358776 0.88493931293 0.8816395402 0.89328962564 0.89687556028 0.8851364851
          0.87253981829 0.88040310144 0.87963271141 0.88804531097 0.89590811729 0.87379127741
          0.89460420609 0.90546858311 0.90563058853 0.87803566456 0.85230773687 0.84894555807
          0.84578150511 0.85741609335 0.86150318384 0.84880208969 0.83826333284 0.84485667944
          0.84477114677 0.85224062204 0.85969144106 0.83802878857 0.85756379366 0.86855041981
          0.86970102787 0.84142416716 0.7694671154 0.76181781292 0.75517040491 0.77648764849
          0.7853859663 0.7630854845 0.74708652496 0.75513786077 0.75726884604 0.76711446047
          0.77834427357 0.74464637041 0.77436566353 0.78946900368 0.79386782646 0.74704456329
          0.6153229475 0.59976714849 0.58963209391 0.62422138453 0.64083266258 0.60143309832
          0.57566595078 0.58764636517 0.5930300355 0.60754150152 0.62541133165 0.5686571002
          0.61885052919 0.64296519756 0.65218275785 0.57324635983 0.37605330348 0.34996160865
          0.33850482106 0.38487043977 0.40969884396 0.35153663158 0.31351906061 0.33128124475
          0.34154462814 0.36079859734 0.38595217466 0.30262845755 0.3793772161 0.41154804826
          0.42385399342 0.31173849106 0.084440231323 0.048396833241 0.036934286356 0.09176402539
          0.1229262501 0.048558551818 -0.0025957322214 0.02158707194 0.037112858146 0.060328818858
          0.092313997447 -0.017094776034 0.086003623903 0.12439864129 0.13824670017 -0.0021042516455
          -0.19700939953 -0.23883186281 -0.25057789683 -0.19046090543 -0.15602396429 -0.23872092366
          -0.29951709509 -0.27126532793 -0.25115540624 -0.22572423518 -0.18897274137 -0.31722548604
          -0.19426241517 -0.15245839953 -0.13948144019 -0.29715669155 -0.41091606021 -0.4591332972
          -0.47142547369 -0.40337362885 -0.36414334178 -0.45911434293 -0.53040206432 -0.49680191278
          -0.47328272462 -0.4438162744 -0.40161940455 -0.55110740662 -0.40605646372 -0.35790133476
          -0.34365317225 -0.52600377798 -0.52089220285 -0.5782340765 -0.5936037302 -0.51076477766
          -0.46330776811 -0.57785576582 -0.66237640381 -0.62231171131 -0.59558361769 -0.55989986658
          -0.50884604454 -0.68608295918 -0.51548522711 -0.45683783293 -0.43862339854 -0.65762805939
          -0.54579788446 -0.60703188181 -0.62546414137 -0.53388684988 -0.48165735602 -0.60651063919
          -0.69563788176 -0.65358674526 -0.625631392 -0.58657836914 -0.53246158361 -0.72159218788
          -0.54167383909 -0.47752505541 -0.45546686649 -0.69309544563 -0.52226936817 -0.58297461271
          -0.60289663076 -0.51035881042 -0.45754623413 -0.58339750767 -0.67123228312 -0.62952786684
          -0.60396391153 -0.5627540946 -0.5096513629 -0.69641035795 -0.52146655321 -0.45596003532
          -0.43242296576 -0.66944921017 -0.48961919546 -0.54953318834 -0.56936609745 -0.47716504335
          -0.42445218563 -0.5496519804 -0.6355791688 -0.59475386143 -0.56995326281 -0.52981239557
          -0.47678947449 -0.65981477499 -0.48908522725 -0.42402949929 -0.39982137084 -0.63449960947
          0.10031137615 0.031924799085 0.015019318089 0.1063067019 0.1642421186 0.023763732985
          -0.06417491287 -0.018887544051 0.00063117640093 0.048619188368 0.10007598251 -0.086684219539
          0.082380406559 0.1508706063 0.18246085942 -0.056562643498 0.045155469328 -0.042511541396
          0.0093244537711 0.082208372653 0.1237025857 0.088649064302 0.16539297998 0.12765812874
          0.11222982407 0.12424712628 0.16162085533 0.15754969418 0.16156388819 0.18586952984
          0.20938040316 0.21433286369 0.24905714393 0.244331792 0.26208662987 0.20505689085
          0.15679973364 0.14698833227 0.15546132624 0.1790689975 0.17722052336 0.17938628793
          0.1956153512 0.20924586058 0.21403163671 0.23451751471 0.23279108107 0.24313381314
          0.20791862905 0.1383061558 0.13539478183 0.14065843821 0.15155512094 0.14980135858
          0.1494614929 0.15882883966 0.16584774852 0.16813106835 0.17865499854 0.1792986095
          0.1838003695 0.16521769762 0.09065553546 0.091470904648 0.094598174095 0.097392447293
          0.095027543604 0.093807913363 0.097334995866 0.099150344729 0.099466606975 0.10128115863
          0.10252542794 0.10304930806 0.098763994873 0.028657758608 0.03087070398 0.034925889224
          0.037326831371 0.032277513295 0.032132700086 0.032953310758 0.035122286528 0.033645953983
          0.032222166657 0.036441002041 0.033769737929 0.036049257964 -4.1135755913e-10 1.6946325454e-09
          -2.9013744185e-10 4.9352678194e-11 1.702284147e-10 4.8936115576e-11 -2.8288317869e-11 -3.4739352779e-13
          9.8108058678e-14 0 0 0 -1.4475400045e-13
        </DataArray>
        <DataArray type="Float32" Name="uy" format="ascii" RangeMin="-0.95290720463" RangeMax="0.51776653528">
          -0.65423804522 -0.64757144451 -0.64150154591 -0.54801797867 -0.44490393996 -0.4527618587
          -0.44980499148 -0.6541556716 -0.65025812387 -0.61380624771 -0.54816091061 -0.44568216801
          -0.44560825825 -0.48390552402 -0.64960712194 -0.61347365379 -0.44475924969 -0.48264738917
          -0.62972772121 -0.55086827278 -0.45733270049 -0.62865895033 -0.4554503262 -0.45721375942
          -0.54969805479 -0.63003176451 -0.54753661156 0.20231027901 0.13682340086 0.20435574651
          0.093390747905 0.028535591438 0.094872288406 0.11040170491 0.0021888110787 0.15105061233
          0.042490322143 0.00066236645216 -0.016007820144 0.069259785116 -0.10549981147 -0.12063454092
          -0.037719849497 -0.068063259125 -0.17336526513 0.068925522268 -0.038430001587 0.027227381244
          -0.079922795296 0.069955915213 -0.03622622788 -0.066568471491 -0.17229650915 -0.013924349099
          -0.12011794001 0.069129824638 -0.038495138288 0.15434677899 0.04559340328 0.31744286418
          0.25200238824 0.31830203533 0.22659154236 0.26668336987 0.11974262446 0.10297487676
          0.18556649983 0.053734410554 0.18612998724 0.14518079162 0.18504156172 0.054440129548
          0.10490968823 0.18564358354 0.26751589775 0.41043886542 0.34638279676 0.41066366434
          0.3214853406 0.35969012976 0.2201372534 0.20436558127 0.28255090117 0.15792614222
          0.28290072083 0.24379731715 0.28152692318 0.15738236904 0.20411361754 0.28075963259
          0.36063021421 0.46529096365 0.40181341767 0.46595141292 0.37584015727 0.4141497612
          0.2737723887 0.25840121508 0.33777436614 0.21076387167 0.33734491467 0.29689374566
          0.33720132709 0.21032802761 0.25641533732 0.33401426673 0.41686373949 0.48327383399
          0.42074096203 0.48528665304 0.39506930113 0.43271791935 0.29359686375 0.27657434344
          0.35657668114 0.23080101609 0.35673999786 0.31751084328 0.35524588823 0.23226696253
          0.27916479111 0.35456874967 0.4360152781 0.46079713106 0.39918550849 0.46155026555
          0.37450703979 0.41178399324 0.27623286843 0.26018872857 0.33721029758 0.21485906839
          0.33742618561 0.29888811707 0.33631899953 0.21565142274 0.26059925556 0.33489301801
          0.41330054402 0.39028555155 0.33378362656 0.38914039731 0.3124178648 0.34645101428
          0.22407476604 0.2106513083 0.27824538946 0.1700540334 0.27847024798 0.24436295033
          0.27698752284 0.1694932431 0.20968906581 0.27682062984 0.34539601207 0.28796714544
          0.23961944878 0.28694680333 0.22165381908 0.25086760521 0.14568693936 0.13351935148
          0.19158172607 0.099964804947 0.19251514971 0.16323493421 0.18990458548 0.099964417517
          0.13389773667 0.19129501283 0.24910236895 0.1484914422 0.10911453515 0.14825163782
          0.095459416509 0.1184964776 0.032447852194 0.021057369187 0.069804482162 -0.0068116467446
          0.071079291403 0.047858472914 0.068457499146 -0.0054313805886 0.02451021038 0.071449182928
          0.11717960238 -0.020232751966 -0.054291293025 -0.020496558398 -0.066340409219 -0.045099042356
          -0.12248660624 -0.131689623 -0.088820293546 -0.15679104626 -0.088246196508 -0.10792594403
          -0.089063353837 -0.15517027676 -0.12785559893 -0.085588864982 -0.046524219215 -0.16818360984
          -0.19935110211 -0.16830252111 -0.21095967293 -0.19024705887 -0.26370468736 -0.27084052563
          -0.23086252809 -0.29732936621 -0.23081974685 -0.25025144219 -0.22909653187 -0.29580548406
          -0.26830589771 -0.22764475644 -0.19016854465 -0.26187729836 -0.28805449605 -0.26138031483
          -0.29818737507 -0.2802414 -0.34261420369 -0.34793138504 -0.31420731544 -0.37154087424
          -0.31492045522 -0.33098316193 -0.31159734726 -0.37050846219 -0.3456812799 -0.31149160862
          -0.27903878689 -0.28840574622 -0.30597135425 -0.28690496087 -0.31311157346 -0.30097097158
          -0.34496629238 -0.34851264954 -0.32354980707 -0.36641073227 -0.32513999939 -0.33600687981
          -0.32170501351 -0.36510777473 -0.34689086676 -0.32195204496 -0.29862350225 -0.22862009704
          -0.24493575096 -0.2263879478 -0.25212961435 -0.24127869308 -0.28296786547 -0.28763210773
          -0.2630097568 -0.30326423049 -0.26359021664 -0.27417588234 -0.26175281405 -0.30088508129
          -0.28384292126 -0.26088696718 -0.23764322698 -0.10406146199 -0.1265861243 -0.1011897698
          -0.13698592782 -0.12306666374 -0.17821526527 -0.18607415259 -0.15198907256 -0.20584160089
          -0.15220306814 -0.16741339862 -0.15077662468 -0.20253628492 -0.18051928282 -0.15104267001
          -0.11816816032 0.031399812549 0.0059588588774 0.03527308628 -0.0062797120772 0.0094642890617
          -0.051850464195 -0.06081385538 -0.02252750285 -0.082543075085 -0.022627556697 -0.039289165288
          -0.021925603971 -0.078423298895 -0.054284695536 -0.021859349683 0.015485153534 0.17510403693
          0.15010526776 0.17888194323 0.13854293525 0.15381972492 0.093756578863 0.085306078196
          0.12217634171 0.064204625785 0.12188821286 0.10614860803 0.1231444329 0.068191051483
          0.091613046825 0.12329168618 0.15941552818 0.3381203711 0.31646278501 0.33953422308
          0.3070525825 0.32105568051 0.26977103949 0.26297104359 0.29309740663 0.24551129341
          0.29313349724 0.27922382951 0.29315945506 0.24774415791 0.2665809989 0.29399734735
          0.32290694118 0.51750457287 0.49576199055 0.51776653528 0.48712462187 0.50020962954
          0.4522189796 0.44702267647 0.474309057 0.4297015965 0.47428816557 0.46077027917
          0.47481495142 0.42991012335 0.44713395834 0.47372239828 0.50101220608 -0.12877012789
          -0.16806936264 -0.12870843709 -0.1834988296 -0.15862311423 -0.25069028139 -0.25806546211
          -0.20802228153 -0.29208520055 -0.20895141363 -0.23507605493 -0.2067360431 -0.29323884845
          -0.26024663448 -0.20857794583 -0.15778964758 -0.46578779817 -0.46539050341 -0.4732196331
          -0.45833152533 -0.46348544955 -0.47494903207 -0.46892738342 -0.95184582472 -0.89416110516
          -0.95290720463 -0.8589219451 -0.80805146694 -0.86046081781 -0.87209075689 -0.78797715902
          -0.90724009275 -0.81851905584 -0.77654075623 -0.75974756479 -0.83485156298 -0.70543074608
          -0.69066756964 -0.75593167543 -0.71676582098 -0.65403902531 -0.83566188812 -0.75659352541
          -0.80045235157 -0.72598141432 -0.83338958025 -0.75467562675 -0.72017306089 -0.65719360113
          -0.7658097744 -0.69626003504 -0.83659023046 -0.75647717714 -0.90800124407 -0.82040160894
          -0.75181776285 -0.70636034012 -0.75274264812 -0.6882789135 -0.71532762051 -0.61456507444
          -0.60094344616 -0.65910577774 -0.56949788332 -0.66015267372 -0.63239735365 -0.65708732605
          -0.57128041983 -0.60451745987 -0.65894335508 -0.71614122391 -0.59689217806 -0.55847007036
          -0.59793901443 -0.5434679985 -0.56522899866 -0.48220059276 -0.47060838342 -0.51875722408
          -0.44571769238 -0.51970791817 -0.49660098553 -0.51671379805 -0.4465097487 -0.47321271896
          -0.51799440384 -0.56613713503 -0.36681935191 -0.33736053109 -0.36723169684 -0.3257907033
          -0.34276682138 -0.27999731898 -0.27234873176 -0.30805274844 -0.25172185898 -0.3085475862
          -0.29060739279 -0.30664798617 -0.25201746821 -0.27251726389 -0.30672186613 -0.34327343106
          -0.094023659825 -0.074740685523 -0.093084201217 -0.067550897598 -0.080138981342 -0.037391986698
          -0.033863890916 -0.056622032076 -0.017438221723 -0.056006684899 -0.043804895133 -0.057365316898
          -0.016022702679 -0.031156117097 -0.055797610432 -0.07925722003 0.1487120688 0.16289168596
          0.15175712109 0.16653253138 0.15553623438 0.18850412965 0.18804262578 0.1746018976
          0.20167206228 0.17502886057 0.18411311507 0.17207407951 0.2049690485 0.19337266684
          0.17337886989 0.16015394032 0.33794999123 0.34812626243 0.34170508385 0.34933513403
          0.34011936188 0.36508390307 0.3633954227 0.35517027974 0.37473869324 0.35574430227
          0.36185958982 0.35279488564 0.37780463696 0.36785718799 0.35158854723 0.34633708
          0.44720166922 0.45467603207 0.45074033737 0.45480793715 0.44707325101 0.46852812171
          0.46702826023 0.46022883058 0.47700339556 0.46043133736 0.46468046308 0.45769175887
          0.47904723883 0.46942555904 0.45579463243 0.45359268785 0.46433958411 0.47286951542
          0.46768838167 0.47250252962 0.46496233344 0.4873097837 0.48747497797 0.47997292876
          0.49569413066 0.47905263305 0.48296129704 0.47897237539 0.49707099795 0.48790830374
          0.47387427092 0.4727050066 0.40994018316 0.42395192385 0.41426825523 0.42617055774
          0.41645091772 0.44558775425 0.44664117694 0.43510109186 0.45675009489 0.43430203199
          0.44125959277 0.43481764197 0.45911845565 0.44940188527 0.43203923106 0.42373535037
          0.32305568457 0.34610244632 0.32804530859 0.35128244758 0.33587303758 0.38496443629
          0.38849267364 0.36651292443 0.40334936976 0.36522167921 0.37738060951 0.36750695109
          0.40623030066 0.3916349113 0.36338150501 0.34556639194 0.24208694696 0.27298149467
          0.24579159915 0.28259444237 0.26302704215 0.3302808702 0.33606743813 0.30165684223
          0.35844504833 0.30125257373 0.31956169009 0.30260720849 0.36044856906 0.33898928761
          0.30078604817 0.26906260848 0.17895326018 0.21498636901 0.1787275672 0.2288312465
          0.20622625947 0.28835046291 0.29754513502 0.25151875615 0.32559031248 0.2515643537
          0.27379360795 0.25153368711 0.32527324557 0.2962205708 0.25104257464 0.2064448446
          0.11617608368 0.15598770976 0.11318026483 0.17238339782 0.14791853726 0.24062794447
          0.25270134211 0.19763839245 0.28531101346 0.19816553593 0.22262862325 0.19672581553
          0.28122395277 0.24559007585 0.19540633261 0.14291867614 0.013248050585 0.0589838624
          0.0088929729536 0.078402929008 0.049985982478 0.15940566361 0.17294809222 0.10795491934
          0.21216888726 0.10845667124 0.13805708289 0.10602930188 0.20715264976 0.16475494206
          0.10576222092 0.042495351285 -0.16153082252 -0.10679609329 -0.16532808542 -0.083609722555
          -0.11851818115 0.011563661508 0.026378627867 -0.049250848591 0.07331199199 -0.048309743404
          -0.01276600454 -0.051420811564 0.069624133408 0.020434688777 -0.05031144619 -0.12481279671
          -0.39200916886 -0.33098033071 -0.39424705505 -0.30704662204 -0.34523335099 -0.20383433998
          -0.18838152289 -0.26852524281 -0.13888421655 -0.26781263947 -0.22964969277 -0.26981601119
          -0.14177559316 -0.19279414415 -0.26980543137 -0.34859606624 -0.65150427818 -0.5898116231
          -0.65269756317 -0.5657479167 -0.60356360674 -0.46319916844 -0.44776856899 -0.5270781517
          -0.39888334274 -0.52635228634 -0.48791083694 -0.5277736187 -0.40030968189 -0.44996190071
          -0.5273745656 -0.60623592138 -0.93056541681 -0.86941319704 -0.93113344908 -0.84510910511
          -0.8828188777 -0.74563968182 -0.73167049885 -0.80845761299 -0.68348950148 -0.8072437048
          -0.76872706413 -0.80901390314 -0.68318754435 -0.73046898842 -0.80664509535 -0.88511824608
          -0.94899982214 -0.88655245304 -0.95097517967 -0.86228978634 -0.89917618036 -0.76566535234
          -0.74958515167 -0.82492172718 -0.7059340477 -0.82568621635 -0.78886276484 -0.82420200109
          -0.70867598057 -0.75315409899 -0.82467806339 -0.9022654295 -0.61103326082 -0.60466474295
          -0.59044075012 -0.63046908379 -0.61965543032 -0.59219640493 -0.60798847675 -0.46232056618
          -0.50516438484 -0.54940485954 -0.57931685448 -0.50687843561 -0.43688333035 -0.50752097368
          -0.58177435398 -0.50805050135 -0.55383896828 -0.4620283246 -0.50770413876 -0.43631133437
          -0.36519613862 -0.39268416166 -0.42069146037 -0.44012570381 -0.39378190041 -0.34820502996
          -0.39401432872 -0.44120806456 -0.3939024806 -0.4231159389 -0.36321502924 -0.3927654326
          -0.34723591805 -0.2359136492 -0.25057440996 -0.26406881213 -0.27257394791 -0.24977423251
          -0.2255884856 -0.24986425042 -0.27374109626 -0.24967315793 -0.26532456279 -0.23428283632
          -0.24999651313 -0.22456787527 -0.12028801441 -0.12485141307 -0.12781533599 -0.12824873626
          -0.12298085541 -0.11643397063 -0.12204615027 -0.1276564151 -0.1223705709 -0.126210168
          -0.11866512895 -0.12313193083 -0.11565615982 -0.03494361788 -0.039300311357 -0.040006164461
          -0.036332566291 -0.035334907472 -0.032170344144 -0.03433657065 -0.033494096249 -0.034577004611
          -0.035010349005 -0.037347931415 -0.037383578718 -0.03388594836 1.4818788557e-11 9.8537454238e-12
          -1.5358766342e-11 2.8030284691e-11 1.0030765281e-12 -2.0802528103e-11 1.3035501498e-12 -1.2554851093e-13
          -3.4535330325e-13 0 0 0 1.0733761427e-13
        </DataArray>
        <DataArray type="Float32" Name="uz" format="ascii" RangeMin="-0.30952170491" RangeMax="0.42845022678">
          -0.018873320892 -0.016873613 -0.01394888293 0.013217472471 0.045804705471 0.045214571059
          0.043728977442 -0.01827022247 -0.023673476651 -0.0062980116345 0.014842485078 0.038803704083
          0.045737825334 0.033500302583 -0.014532314613 -0.0064451391809 0.051834516227 0.03398970142
          -0.016812510788 0.011225266382 0.036258041859 -0.021529233083 0.031078442931 0.048797734082
          0.015626657754 -0.0076939943247 0.014061534777 0.21801446378 0.1714489311 0.18040731549
          0.23216630518 0.18154430389 0.20133048296 0.19726087153 0.19932453334 0.2342581749
          0.23731715977 0.13288341463 0.088339678943 0.13174253702 0.12899844348 0.089859776199
          0.13810628653 0.10386933386 0.094260938466 0.16148895025 0.16283681989 0.17419306934
          0.16667720675 0.10054387152 0.11274403334 0.14260852337 0.12461358309 0.18843616545
          0.17012384534 0.2231362164 0.21361193061 0.13592982292 0.15538075566 0.20354348421
          0.16392245889 0.16646663845 0.19208590686 0.22388656437 0.13801147044 0.096202999353
          0.13054923713 0.11655909568 0.16018971801 0.17633828521 0.10051235557 0.15417531133
          0.19436578453 0.22038990259 0.12739180028 0.19474677742 0.16372147202 0.16812777519
          0.18330435455 0.20735619962 0.1403016746 0.10999186337 0.13762056828 0.12251053005
          0.15892964602 0.16847790778 0.11577973515 0.14811740816 0.17809526622 0.20095016062
          0.13787508011 0.18599568307 0.16478826106 0.17333094776 0.17151656747 0.18711510301
          0.14074987173 0.12506821752 0.14604510367 0.12574197352 0.15596653521 0.15637777746
          0.13595968485 0.13768438995 0.15709407628 0.17599181831 0.15417356789 0.16846123338
          0.16049960256 0.16838389635 0.1572715044 0.16232517362 0.14488098025 0.14355391264
          0.15303498507 0.13722699881 0.15251967311 0.14768454432 0.15324673057 0.13727656007
          0.1432376951 0.15274038911 0.16272577643 0.14766389132 0.15679080784 0.1611559391
          0.14455921948 0.13595569134 0.15486691892 0.16870932281 0.16322155297 0.15749534965
          0.15261083841 0.14312323928 0.17418149114 0.14398823678 0.1337864399 0.13065643609
          0.17134016752 0.13863557577 0.1585137099 0.16327755153 0.13629451394 0.11894470453
          0.16013042629 0.18722450733 0.17306236923 0.16836287081 0.15321387351 0.13725449145
          0.19337891042 0.14314827323 0.12160176039 0.11239616573 0.18422578275 0.14104147255
          0.16614571214 0.17738564312 0.13250917196 0.11041018367 0.16281498969 0.2004737854
          0.18473683298 0.16971851885 0.15510550141 0.13030989468 0.2137440443 0.13356865942
          0.10592633486 0.096763037145 0.20481368899 0.14200752974 0.17498809099 0.19030843675
          0.1315779984 0.10154929012 0.17148602009 0.22159937024 0.19973942637 0.18098957837
          0.16128925979 0.12920677662 0.23930615187 0.13291271031 0.095262058079 0.083833187819
          0.22722613811 0.13815039396 0.17869563401 0.18925917149 0.13519987464 0.099014721811
          0.18416789174 0.23957653344 0.2094630748 0.20038500428 0.16927364469 0.13811255991
          0.25210312009 0.14868925512 0.10514722019 0.086849316955 0.23255370557 0.14007124305
          0.17708879709 0.17862449586 0.14548486471 0.11407264322 0.19251264632 0.2357532531
          0.20598742366 0.21067269146 0.17528025806 0.15493750572 0.23792603612 0.17187587917
          0.13416571915 0.11223991215 0.21599005163 0.15234193206 0.17387712002 0.168340832
          0.16327051818 0.14669077098 0.19446283579 0.21377937496 0.19301356375 0.20855756104
          0.18016679585 0.17595513165 0.20623669028 0.19259855151 0.17128315568 0.15378639102