<VTKFile type="UnstructuredGrid" version="1.0" byte_order="LittleEndian" header_type="UInt64">
  <UnstructuredGrid>
    <Piece NumberOfPoints="791" NumberOfCells="973">
      <PointData>
        <DataArray type="Float32" Name="ux" format="ascii" RangeMin="-1.3926559687" RangeMax="1.1061682701">
          -0.087180987 -0.093838967383 -0.083183318377 -0.080300971866 -0.076603159308 -0.077877722681
          -0.087971746922 -0.097081579268 -0.10973127186 -0.10232356191 -0.092688247561 -0.10053261369
          -0.086872786283 -0.098754405975 -0.077191501856 -0.076195366681 -0.065025210381 -0.071463450789
          -0.097258083522 -0.10511364043 -0.099093593657 -0.10687108338 -0.10897605866 -0.068200521171
          -0.071403205395 -0.070451319218 -0.086188092828 -0.3005156517 -0.3180449307 -0.32457762957
          -0.19382542372 -0.21041043103 -0.21635195613 -0.29637932777 -0.19030708075 -0.28074151278
          -0.17529888451 -0.31757813692 -0.34195864201 -0.33073359728 -0.21045514941 -0.23249039054
          -0.22218409181 -0.3233935535 -0.21630610526 -0.31182131171 -0.20486915112 -0.29633942246
          -0.19085019827 -0.34953019023 -0.23915503919 -0.30025532842 -0.19560955465 -0.28108462691
          -0.17724891007 -0.27337661386 -0.16895844042 -0.34317424893 -0.23339609802 -0.41589510441
          -0.43446022272 -0.44071081281 -0.41199067235 -0.39574429393 -0.43421790004 -0.46039950848
          -0.44820633531 -0.44024401903 -0.42816123366 -0.41185989976 -0.46814155579 -0.41551056504
          -0.39566516876 -0.38804531097 -0.46062645316 -0.53085899353 -0.55009031296 -0.55613958836
          -0.52700459957 -0.51048386097 -0.55009448528 -0.57792168856 -0.56471198797 -0.55632323027
          -0.54374676943 -0.52666890621 -0.58589506149 -0.52999001741 -0.50938516855 -0.50211042166
          -0.5773267746 -0.63670688868 -0.65702718496 -0.66313135624 -0.63294488192 -0.61579746008
          -0.65720427036 -0.68649786711 -0.67261463404 -0.66361659765 -0.65048587322 -0.63260829449
          -0.6949250102 -0.6358268857 -0.61439341307 -0.6072461009 -0.68563449383 -0.72599583864
          -0.74754750729 -0.75372850895 -0.72233593464 -0.70432448387 -0.74771291018 -0.77856099606
          -0.76398205757 -0.75426733494 -0.74077445269 -0.72197324038 -0.7875187993 -0.72505760193
          -0.70290011168 -0.69549554586 -0.77760690451 -0.79093158245 -0.81345182657 -0.81972199678
          -0.78748142719 -0.76879537106 -0.81355208158 -0.84579193592 -0.8306543231 -0.82021808624
          -0.80645900965 -0.78709793091 -0.85538989305 -0.79004955292 -0.76751703024 -0.75993144512
          -0.84481704235 -0.82364976406 -0.84810894728 -0.8545960784 -0.82031530142 -0.80023348331
          -0.84831565619 -0.88279634714 -0.86666041613 -0.85521900654 -0.84070456028 -0.82006764412
          -0.89326351881 -0.82321703434 -0.79936552048 -0.79115891457 -0.88188791275 -0.8174495101
          -0.84417301416 -0.85114729404 -0.8139449358 -0.79204535484 -0.84457588196 -0.88198536634
          -0.86441957951 -0.85219192505 -0.83622789383 -0.8137845397 -0.89324247837 -0.81724882126
          -0.79127657413 -0.78225469589 -0.88083314896 -0.7677500844 -0.79650145769 -0.80432665348
          -0.76363104582 -0.73971748352 -0.79667651653 -0.83703225851 -0.81816542149 -0.8050352931
          -0.78777807951 -0.76344329119 -0.84924590588 -0.76735818386 -0.73898285627 -0.72895330191
          -0.83607703447 -0.67732471228 -0.70810776949 -0.7168469429 -0.67252725363 -0.64680314064
          -0.70831274986 -0.75168973207 -0.73132246733 -0.71751791239 -0.69856601954 -0.67240035534
          -0.76477193832 -0.67700344324 -0.64612090588 -0.6350761652 -0.75084680319 -0.55174487829
          -0.58477216959 -0.59453511238 -0.54636603594 -0.51851630211 -0.58485203981 -0.63108950853
          -0.60954278708 -0.59476613998 -0.57438844442 -0.54626208544 -0.64514642954 -0.55149066448
          -0.51814079285 -0.50594758987 -0.63071632385 -0.39375326037 -0.42912480235 -0.43991026282
          -0.38777315617 -0.35769942403 -0.42931315303 -0.47859504819 -0.45559716225 -0.44007566571
          -0.41796892881 -0.3878980577 -0.49370232224 -0.39401990175 -0.35781282187 -0.34421774745
          -0.47856810689 -0.20811663568 -0.24593310058 -0.25777229667 -0.20140917599 -0.16901952028
          -0.24590839446 -0.29850998521 -0.27398690581 -0.25762712955 -0.23377865553 -0.20153494179
          -0.31455808878 -0.20844124258 -0.16942788661 -0.15450561047 -0.29886862636 -0.0039005973376
          -0.043180920184 -0.055928699672 0.0035692730453 0.037502523512 -0.042885113508 -0.097500354052
          -0.072127990425 -0.055221471936 -0.030277501792 0.0035052571911 -0.11422842741 -0.0040163225494
          0.0370423235 0.052933491766 -0.098302014172 0.21242980659 0.17277109623 0.15957410634
          0.22028519213 0.25481972098 0.17291240394 0.11771339178 0.14350093901 0.16008794308
          0.18587687612 0.22003889084 0.10096940398 0.2119063884 0.25396713614 0.27049964666
          0.11682479829 0.43070724607 0.39071440697 0.37701761723 0.43894806504 0.47406288981
          0.39082664251 0.33520662785 0.3612229228 0.37765464187 0.40408182144 0.43864583969
          0.31845480204 0.4300493896 0.47306549549 0.49010747671 0.33413207531 0.64252471924
          0.60188287497 0.58787405491 0.65119731426 0.68693935871 0.60209041834 0.54510116577
          0.57184642553 0.58847761154 0.61565345526 0.65103334188 0.52812355757 0.64218556881
          0.68625384569 0.70355254412 0.54420483112 0.84591495991 0.80436366796 0.7901698947
          0.85464519262 0.89112824202 0.80446362495 0.74609297514 0.77354115248 0.79059612751
          0.81836432219 0.85447609425 0.72883778811 0.8456607461 0.89059376717 0.90809464455
          0.74553221464 1.0439316034 1.0020313263 0.98800820112 1.0525634289 1.0890800953
          1.001973629 0.94303184748 0.97082865238 0.98799484968 1.0159842968 1.0523997545
          0.92567276955 1.0436512232 1.0887788534 1.1061682701 0.94281578064 -0.082057543099
          -0.10775527358 -0.099844150245 -0.096032708883 -0.076260663569 -0.13144919276 -0.15232163668
          -0.12914682925 -0.14859910309 -0.11516040564 -0.11088799685 -0.14244072139 -0.13136646152
          -0.10702246428 -0.085657849908 -0.1228736043 -0.097181543708 -0.11261963844 -0.10756050795
          -0.089068084955 -0.083851873875 -0.09438470006 -0.079520598054 0.049483399838 0.040555678308
          0.038039248437 0.1833320111 0.17186665535 0.16907571256 0.050787828863 0.18471816182
          0.05783540383 0.19426555932 0.04079625383 0.027821015567 0.033597070724 0.17133660614
          0.15523155034 0.16306182742 0.038964167237 0.16772119701 0.04337182641 0.17507280409
          0.051104787737 0.18457625806 0.023229008541 0.15082649887 0.050903905183 0.18273356557
          0.059037607163 0.19418866932 0.061298288405 0.19835230708 0.027490803972 0.15644851327
          0.33025801182 0.31663388014 0.31231805682 0.33305484056 0.34476265311 0.31650006771
          0.29678490758 0.30628168583 0.31179216504 0.32121130824 0.33316400647 0.29143646359
          0.33045846224 0.34527441859 0.35057616234 0.2974640429 0.47991430759 0.46332666278
          0.45752218366 0.48392257094 0.49867960811 0.46318480372 0.43898466229 0.45072385669
          0.45702928305 0.46906602383 0.48406201601 0.43253925443 0.48018056154 0.49920010567
          0.50627183914 0.43957099319 0.61918985844 0.59939038754 0.59203934669 0.6242621541
          0.64218717813 0.59945231676 0.57109642029 0.58469831944 0.59208750725 0.60642701387
          0.62417089939 0.56318581104 0.61914050579 0.64206629992 0.65114986897 0.57095199823
          0.73769181967 0.71493768692 0.7062318325 0.74347114563 0.76419824362 0.71500462294
          0.6828545928 0.69816797972 0.70663911104 0.72294855118 0.74326121807 0.67369633913
          0.73728561401 0.7635820508 0.7742510438 0.68218410015 0.82898402214 0.80395966768
          0.79440540075 0.83530575037 0.85804659128 0.80407637358 0.76874274015 0.78557503223
          0.79490923882 0.81281977892 0.8350803256 0.75867968798 0.82850426435 0.85732001066
          0.86903679371 0.76797252893 0.89158892632 0.86518412828 0.8549451232 0.89844959974
          0.92252910137 0.865193367 0.82776719332 0.84566098452 0.85531783104 0.87459045649
          0.89825069904 0.81723213196 0.89109528065 0.92183995247 0.93429803848 0.82714128494
          0.92184782028 0.89429074526 0.88334935904 0.92941683531 0.95469862223 0.89434945583
          0.85505455732 0.87392669916 0.88371324539 0.90426278114 0.92919665575 0.84431236982
          0.92137151957 0.95408666134 0.96729403734 0.85443127155 0.90871840715 0.87978261709
          0.86806595325 0.9169754982 0.94379895926 0.87994033098 0.83816695213 0.85828250647
          0.8684976697 0.89040493965 0.91685849428 0.82690501213 0.90853464603 0.94333779812
          0.95737576485 0.83767855167 0.84540480375 0.8148881197 0.80285602808 0.85380250216
          0.88186329603 0.81493127346 0.77115213871 0.79227393866 0.80303788185 0.82596164942
          0.85367113352 0.75930917263 0.845089674 0.88151216507 0.89614343643 0.77082246542
          0.73354583979 0.70255714655 0.69065743685 0.74169027805 0.76994735003 0.70258003473
          0.65854692459 0.67970561981 0.69087082148 0.71371239424 0.74151563644 0.64650315046
          0.73309838772 0.76941728592 0.78403091431 0.65813237429 0.57935279608 0.5488525033
          0.53707450628 0.58728581667 0.61507838964 0.54882526398 0.50553745031 0.52622205019
          0.53734058142 0.55961030722 0.58697253466 0.49340826273 0.57865929604 0.61427170038
          0.6286123395 0.50486296415 0.38739866018 0.3569791913 0.34528529644 0.39522987604
          0.4228977263 0.35722726583 0.31427401304 0.3346477747 0.34600171447 0.36786919832
          0.39503902197 0.30202102661 0.38698750734 0.42206588387 0.43632814288 0.31329786777
          0.15982156992 0.12888263166 0.11715343595 0.16751696169 0.19558353722 0.12894563377
          0.085473500192 0.10610747337 0.11772575974 0.13975335658 0.16718907654 0.07294178009
          0.15908613801 0.19446289539 0.20896235108 0.084463775158 -0.10073745251 -0.13230082393
          -0.14390188456 -0.093389801681 -0.065097153187 -0.13216617703 -0.17625981569 -0.15544760227
          -0.14333550632 -0.12137221545 -0.093689292669 -0.18906411529 -0.10148887336 -0.066257961094
          -0.051919914782 -0.1772711277 -0.38711884618 -0.41862910986 -0.42985400558 -0.3800803721
          -0.35205477476 -0.41847771406 -0.46260693669 -0.44185689092 -0.42932841182 -0.40783494711
          -0.38029271364 -0.47561883926 -0.38756290078 -0.35280317068 -0.33895862103 -0.46340614557
          -0.68810516596 -0.72033005953 -0.73134303093 -0.68131500483 -0.65296441317 -0.7202308774
          -0.76542645693 -0.74413710833 -0.73102688789 -0.70948535204 -0.68137454987 -0.77869939804
          -0.68829101324 -0.65336191654 -0.63970547915 -0.76582813263 -0.99425601959 -1.0270946026
          -1.0380250216 -0.98743182421 -0.95870494843 -1.0270510912 -1.0732504129 -1.0514599085
          -1.0379143953 -1.0161303282 -0.98744505644 -1.0868214369 -0.9942573905 -0.95878010988
          -0.94519895315 -1.0734128952 -1.2999169827 -1.3326896429 -1.343588233 -1.2931833267
          -1.2646052837 -1.3326537609 -1.3790639639 -1.3571610451 -1.3436205387 -1.3217250109
          -1.2931524515 -1.3926559687 -1.2998194695 -1.2644853592 -1.2510123253 -1.3790677786
          -0.084334351122 -0.077598594129 -0.094512626529 -0.063502296805 -0.066262073815 -0.050413887948
          -0.058503109962 -0.070076644421 -0.038174260408 -0.061562411487 -0.046499643475 -0.07927056402
          -0.027812564746 -0.031279180199 -0.046246372163 -0.092422403395 -0.085871607065 -0.096306979656
          -0.081764258444 -0.087811894715 -0.077556967735 -0.070617087185 -0.066450253129 -0.082752168179
          -0.083849817514 -0.079942405224 -0.073248825967 -0.07637475431 -0.077146008611 -0.071867108345
          -0.066784061491 -0.067426085472 -0.062617771327 -0.062748111784 -0.0607422553 -0.069206915796
          -0.057386118919 -0.058281779289 -0.056450150907 -0.052625797689 -0.053651824594 -0.053478952497
          -0.05055648461 -0.047915369272 -0.047498844564 -0.04401955381 -0.044164940715 -0.042580705136
          -0.048332523555 -0.035105336457 -0.036282368004 -0.03508092463 -0.031876664609 -0.03242528066
          -0.032389208674 -0.030012965202 -0.027806531638 -0.027593366802 -0.024554401636 -0.025509607047
          -0.023763930425 -0.028764441609 -0.017835967243 -0.019079843536 -0.018646139652 -0.016006005928
          -0.016159532592 -0.016044124961 -0.014305163175 -0.012301792391 -0.012374147773 -0.0094404369593
          -0.011219121516 -0.0093045216054 -0.013765045442 -0.0057244366035 -0.0069947079755 -0.0073726400733
          -0.0056400592439 -0.0053098229691 -0.0052915625274 -0.0041668219492 -0.0027035526 -0.0031463368796
          -0.00066021538805 -0.0034768616315 -0.0014927403536 -0.0047276951373 0 0
          0 0 0 0 0 0
          0 0 0 0 0
        </DataArray>
        <DataArray type="Float32" Name="uy" format="ascii" RangeMin="-0.17707145214" RangeMax="0.31448966265">
          0.21801106632 0.21981979907 0.22144372761 0.23261074722 0.24969570339 0.24960786104
          0.24995857477 0.21650739014 0.21715044975 0.22141298652 0.23073278368 0.24896682799
          0.24852190912 0.2413700223 0.22075508535 0.22466486692 0.25108036399 0.24422994256
          0.22265410423 0.23335458338 0.24866938591 0.22257187963 0.2485857904 0.24674317241
          0.23658029735 0.22150300443 0.23114991188 0.23003315926 0.21144343913 0.22942319512
          0.28961610794 0.27159407735 0.28860291839 0.20469716191 0.26541092992 0.21601389349
          0.27651369572 0.17557728291 0.17128627002 0.19322869182 0.2383082211 0.23439459503
          0.25447544456 0.15791542828 0.22239720821 0.19343961775 0.25478366017 0.18226751685
          0.24419245124 0.19277615845 0.25379514694 0.15756493807 0.2214345783 0.17078410089
          0.23311540484 0.19315348566 0.25442117453 0.21491715312 0.27456772327 0.16010506451
          0.14087852836 0.15996956825 0.13363453746 0.1454859674 0.10279248655 0.098220273852
          0.12179455161 0.083709925413 0.12181700021 0.11008006334 0.12173546851 0.083830885589
          0.09831712395 0.12186399102 0.14529882371 0.08910318464 0.069563739002 0.08943040669
          0.062054686248 0.074332296848 0.029446784407 0.02459298633 0.049662876874 0.0090851876885
          0.049621518701 0.037493053824 0.049871616066 0.009630988352 0.025601590052 0.050298519433
          0.074681572616 0.029509440064 0.0092303454876 0.030119691044 0.0015512012178 0.014238437638
          -0.032530836761 -0.037881735712 -0.011591593735 -0.053962901235 -0.011446063407 -0.023844802752
          -0.011288804933 -0.052987035364 -0.035854887217 -0.010285928845 0.014808830805 -0.014976562001
          -0.035948358476 -0.014071565121 -0.044220209122 -0.031171567738 -0.079830490053 -0.085551381111
          -0.057745698839 -0.10242477804 -0.057719193399 -0.070653490722 -0.05740089342 -0.10112098604
          -0.083192519844 -0.056632209569 -0.029887298122 -0.044721011072 -0.066166959703 -0.043267942965
          -0.075099512935 -0.061842147261 -0.11199895293 -0.11812524498 -0.088858492672 -0.13557061553
          -0.088912725449 -0.10245207697 -0.088423609734 -0.13389988244 -0.11529183388 -0.088119931519
          -0.059478994459 -0.059830408543 -0.082653157413 -0.057828053832 -0.09244608134 -0.078418269753
          -0.13175700605 -0.13845340908 -0.10696056485 -0.15699018538 -0.10713070631 -0.12160597742
          -0.10652628541 -0.15501977503 -0.13530282676 -0.10645128042 -0.075277909636 -0.061945177615
          -0.086647234857 -0.059780485928 -0.09735377878 -0.082178138196 -0.1397832036 -0.14695574343
          -0.11294125766 -0.1671051085 -0.11316552013 -0.12886494398 -0.11254070699 -0.1651134789
          -0.14383006096 -0.11266990751 -0.078762181103 -0.051101837307 -0.078271359205 -0.04912706092
          -0.089859195054 -0.073180668056 -0.13612636924 -0.14376993477 -0.10696917027 -0.1656191051
          -0.1071588099 -0.12443610281 -0.1064800024 -0.16373601556 -0.1408406347 -0.10673303902
          -0.06984385103 -0.028416518122 -0.057839281857 -0.026514513418 -0.070211954415 -0.052175067365
          -0.12002128363 -0.12819419801 -0.088687524199 -0.15168988705 -0.088851302862 -0.1075206399
          -0.08836260438 -0.14991267025 -0.12534999847 -0.088565669954 -0.049059424549 0.002915444551
          -0.029052536935 0.0045295506716 -0.042210225016 -0.022717807442 -0.095557421446 -0.10424460471
          -0.06215878576 -0.12932263315 -0.062286984175 -0.082362145185 -0.062057353556 -0.12780267
          -0.10185945779 -0.062236879021 -0.020071929321 0.038115650415 0.003386417171 0.039441738278
          -0.010601400398 0.010581670329 -0.068150900304 -0.077506765723 -0.032423581928 -0.10420859605
          -0.032348953187 -0.054045662284 -0.032511163503 -0.10285676271 -0.075224861503 -0.032280482352
          0.01264323201 0.073200404644 0.035726588219 0.074189014733 0.020743433386 0.043650243431
          -0.040705174208 -0.050511676818 -0.0026665166952 -0.079010792077 -0.0025331259239 -0.02584393695
          -0.0027758576907 -0.078022889793 -0.048798236996 -0.0026906672865 0.045211628079 0.10216809809
          0.062611915171 0.10274709016 0.047140322626 0.071239978075 -0.017048953101 -0.027056585997
          0.022597275674 -0.056861549616 0.022744338959 -0.0017298004823 0.022345378995 -0.056241061538
          -0.026026252657 0.022394837812 0.072176881135 0.12127223611 0.080801121891 0.12143966556
          0.065227583051 0.089933022857 7.6181720942e-05 -0.0098449010402 0.040211152285 -0.04003868252
          0.040358040482 0.015466711484 0.039764106274 -0.039857313037 -0.0095234131441 0.039944890887
          0.090152367949 0.1296467185 0.088376253843 0.1293309778 0.072809301317 0.098068460822
          0.0067461016588 -0.0031217325013 0.04721461609 -0.033748239279 0.047479365021 0.022224167362
          0.04673659429 -0.033930081874 -0.0033344239928 0.047080017626 0.097408473492 0.12575218081
          0.083604246378 0.12535278499 0.067736648023 0.093574970961 0.00023840420181 -0.0096830278635
          0.041746135801 -0.041204094887 0.04194611311 0.015950394794 0.041248384863 -0.04153393954
          -0.010220473632 0.04143448174 0.092878259718 0.11003561318 0.067091077566 0.10987775028
          0.050772596151 0.077100194991 -0.018143521622 -0.028171932325 0.024368505925 -0.060463648289
          0.02436960116 -0.0020326548256 0.024165302515 -0.060720995069 -0.028524069116 0.02408837527
          0.076967269182 0.087428875268 0.044379193336 0.087404794991 0.027998235077 0.054561335593
          -0.041299108416 -0.051400814205 0.0014396576444 -0.084075205028 0.0015012113145 -0.024975219741
          0.0013650518376 -0.084059603512 -0.05148274079 0.0015021201689 0.054432153702 0.31448966265
          0.29593172669 0.31272509694 0.28996101022 0.30150547624 0.26390463114 0.26088893414
          0.27959173918 0.24870114028 0.27957236767 0.26904243231 0.2791698575 0.24667829275
          0.25767976046 0.27907350659 0.29858675599 0.24525275826 0.24682965875 0.24275888503
          0.24808605015 0.24500708282 0.23941358924 0.24107386172 0.14602580667 0.15406778455
          0.14462935925 0.11873181164 0.12933287024 0.11781989783 0.15800999105 0.13396772742
          0.15325894952 0.12740260363 0.17254133523 0.17520010471 0.16311654449 0.15218925476
          0.1549475491 0.14050482213 0.1820821017 0.16388127208 0.16328091919 0.14073204994
          0.16858267784 0.14770407975 0.16269132495 0.14010098577 0.18078252673 0.16330203414
          0.17320111394 0.15431299806 0.1631872654 0.14069575071 0.15070442855 0.12577185035
          0.083042308688 0.096802592278 0.0827806741 0.10221194476 0.09359613061 0.12478063256
          0.1278308928 0.11056116968 0.13897529244 0.1107442081 0.1194459945 0.11015081406
          0.13896200061 0.12789343297 0.1106229648 0.093022331595 0.037581838667 0.055332303047
          0.038044203073 0.061802536249 0.050539437681 0.090391673148 0.094063475728 0.072750627995
          0.10794457048 0.072773493826 0.08375043422 0.072579301894 0.10841980577 0.094884693623
          0.07256360352 0.051332917064 -0.01375724189 0.0079145794734 -0.012727498077 0.015587321483
          0.0019797161222 0.049692433327 0.054030694067 0.028886847198 0.070163108408 0.028815865517
          0.042018428445 0.028916675597 0.071122787893 0.055561855435 0.028839387 0.0036276774481
          -0.062705658376 -0.037705477327 -0.061356354505 -0.028955882415 -0.044527076185 0.0099690398201
          0.014945304021 -0.013618256897 0.033199328929 -0.013804103248 0.0013189235469 -0.013368557207
          0.034487117082 0.01702635549 -0.01356422063 -0.042211912572 -0.10274612159 -0.075336307287
          -0.10129711777 -0.065702587366 -0.082757368684 -0.022949766368 -0.017420550808 -0.048942677677
          0.0025811784435 -0.049039516598 -0.032487273216 -0.04857731238 0.0039743329398 -0.015256935731
          -0.048798244447 -0.080304242671 -0.13201020658 -0.10294014215 -0.1303524226 -0.092855840921
          -0.11095355451 -0.047733679414 -0.041956104338 -0.075102820992 -0.020658493042 -0.075237989426
          -0.057736650109 -0.074754446745 -0.019122298807 -0.039466228336 -0.074977569282 -0.10813262314
          -0.15308508277 -0.12238515168 -0.15096849203 -0.11194623262 -0.13116444647 -0.064635813236
          -0.058861270547 -0.093314900994 -0.036341343075 -0.093429662287 -0.07499936223 -0.093041814864
          -0.034265000373 -0.055668171495 -0.093236833811 -0.12763731182 -0.16725404561 -0.13459505141
          -0.1648658663 -0.12348867953 -0.14406695962 -0.073117874563 -0.067315354943 -0.10378747433
          -0.043130178005 -0.10381001979 -0.084032274783 -0.10364611447 -0.040729824454 -0.063329726458
          -0.1035034135 -0.14022195339 -0.17557914555 -0.14146828651 -0.17324277759 -0.12983462214
          -0.15131193399 -0.076908588409 -0.07069798559 -0.10914576054 -0.045330874622 -0.10916376114
          -0.088469654322 -0.10897601396 -0.042931698263 -0.066812753677 -0.10894517601 -0.14747275412
          -0.17707145214 -0.14293052256 -0.17494904995 -0.13116203249 -0.15252785385 -0.078128196299
          -0.071680098772 -0.11047887057 -0.046291533858 -0.11049955338 -0.089773096144 -0.11026888341
          -0.044141821563 -0.068207256496 -0.1102527231 -0.14908874035 -0.17090599239 -0.13732022047
          -0.16896173358 -0.12576298416 -0.14666470885 -0.073608897626 -0.066949255764 -0.10517627746
          -0.042309645563 -0.10542488843 -0.085183240473 -0.10486697406 -0.040486730635 -0.064186483622
          -0.10525726527 -0.14338898659 -0.15771140158 -0.12436386198 -0.15592697263 -0.11262111366
          -0.13337172568 -0.06097470969 -0.054347958416 -0.092418476939 -0.029957009479 -0.092573471367
          -0.072387956083 -0.092014729977 -0.028207914904 -0.051504585892 -0.092122100294 -0.13041748106
          -0.13458640873 -0.10096690804 -0.13299864531 -0.089047797024 -0.10981594771 -0.036669034511
          -0.02969654277 -0.068498909473 -0.0052241673693 -0.068714983761 -0.04832457751 -0.068011984229
          -0.0035687210038 -0.027151240036 -0.06810478121 -0.10716190934 -0.097621336579 -0.064020760357
          -0.096377283335 -0.051865343004 -0.072574242949 0.00072224013275 0.0079308031127 -0.031336136162
          0.032540101558 -0.031523671001 -0.011182567105 -0.030892675743 0.033740997314 0.0098308539018
          -0.030997877941 -0.070439808071 -0.046747561544 -0.013588784263 -0.046010043472 -0.0013024540385
          -0.02171478048 0.051303762943 0.058775711805 0.0190395955 0.083415463567 0.018955541775
          0.039268735796 0.019368777052 0.084131717682 0.059922143817 0.019355602562 -0.020533505827
          0.012116712518 0.045506574214 0.012446371838 0.058192998171 0.037621323019 0.11169084907
          0.1194325611 0.078732803464 0.14463318884 0.078655466437 0.099281691015 0.078802466393
          0.144938007 0.11998568475 0.07891997695 0.038053885102 0.075640819967 0.10938180983
          0.075706534088 0.12225127965 0.10137226433 0.17665793002 0.18463087082 0.14309696853
          0.210218817 0.14299142361 0.16382993758 0.1431877315 0.21024018526 0.18463931978
          0.14304961264 0.10152002424 0.14165468514 0.17528253794 0.14161531627 0.18815742433
          0.16739979386 0.24281652272 0.25087314844 0.20910406113 0.27657169104 0.2090203613
          0.22988082469 0.20911732316 0.27650183439 0.25070208311 0.20903342962 0.16735264659
          0.18523286283 0.18706730008 0.18295554817 0.18916805089 0.18822146952 0.19586597383
          0.19808204472 0.1912201792 0.20112350583 0.19125409424 0.19315993786 0.19089862704
          0.19871087372 0.19422352314 0.19083194435 0.1846691519 0.22466982901 0.22745992243
          0.22768890858 0.22243010998 0.22257077694 0.22416396439 0.22165957093 0.21120594442
          0.20414315164 0.19759836793 0.19438844919 0.20477004349 0.21595840156 0.20498707891
          0.19486548007 0.20511604846 0.19881425798 0.21152172983 0.2051717788 0.2159114778
          0.16012559831 0.15526625514 0.15102876723 0.14878442883 0.15603412688 0.16354109347
          0.15634734929 0.14907248318 0.1565195173 0.1519267261 0.16112700105 0.15649491549
          0.16400383413 0.10078527778 0.097315683961 0.093763589859 0.09148208797 0.097408957779
          0.10310403258 0.097606830299 0.091743014753 0.0978666991 0.094511806965 0.10204211622
          0.098505564034 0.10362557322 0.047995083034 0.045620661229 0.042838316411 0.040558297187
          0.045276224613 0.049335636199 0.045333828777 0.040605925024 0.045684915036 0.043165232986
          0.049189671874 0.046562153846 0.049855586141 0.013741107658 0.012961182743 0.011216028593
          0.0090710110962 0.012042570859 0.013853942044 0.012062135153 0.0090355593711 0.012451364659
          0.011464620009 0.01521656476 0.013968158513 0.0145325372 0 0
          0 0 0 0 0 0
          0 0 0 0 0
        </DataArray>
        <DataArray type="Float32" Name="uz" format="ascii" RangeMin="-0.064672924578" RangeMax="0.28544342518">
          0.016307624057 0.015425334685 0.01716902107 0.019015513361 0.021288627759 0.019722614437
          0.019516773522 0.013266182505 0.013846454211 0.011603259481 0.015182154253 0.018379664049
          0.018622593954 0.015236212872 0.017884422094 0.018886512145 0.019977824762 0.021860022098
          0.014888426289 0.012874754146 0.018499756232 0.012817989103 0.01712955907 0.017083894461
          0.019927946851 0.016348415986 0.017295755446 0.1506677866 0.13783404231 0.17360535264
          0.14459390938 0.13195495307 0.16337159276 0.10600706935 0.10506711155 0.10935772955
          0.10924570262 0.078579887748 0.095709405839 0.12085474283 0.080235511065 0.093238994479
          0.1161012277 0.054418168962 0.059202868491 0.10252626985 0.10124988109 0.069295302033
          0.073406547308 0.13957616687 0.13107445836 0.031438358128 0.041332654655 0.035529479384
          0.045598540455 0.065411731601 0.071208953857 0.16929028928 0.15801972151 0.15307888389
          0.14061664045 0.17797914147 0.10651559383 0.10927227885 0.079039014876 0.09804007411
          0.12359857559 0.054272308946 0.10362968594 0.068391874433 0.14390054345 0.029275575653
          0.032615691423 0.063295818865 0.17436738312 0.15216034651 0.13972380757 0.17529408634
          0.1077156961 0.11090377718 0.080849833786 0.09820266068 0.12306216359 0.056895658374
          0.10451859236 0.07131318748 0.14194625616 0.033849783242 0.037741910666 0.067200802267
          0.17131774127 0.14879907668 0.13642668724 0.16744337976 0.10975331813 0.11385991424
          0.084453552961 0.097828827798 0.12086694688 0.062716729939 0.10584333539 0.077619604766
          0.1359732002 0.044219274074 0.049133021384 0.075776942074 0.16251049936 0.14226827025
          0.13157485425 0.15583206713 0.11147075891 0.1155237034 0.090345427394 0.099558584392
          0.11850123107 0.072759345174 0.10759221762 0.085974439979 0.12935440242 0.059297110885
          0.064239732921 0.085698865354 0.15081636608 0.13094991446 0.12399660051 0.13959485292
          0.1111984551 0.11390059441 0.097544133663 0.10340949893 0.11558677256 0.086237818003
          0.10864041746 0.094839140773 0.12246826291 0.077689163387 0.080892026424 0.094760879874
          0.13631410897 0.11466684937 0.11380761862 0.11883483082 0.10866203904 0.10841999948
          0.1062251851 0.10963427275 0.11237171292 0.10316285491 0.10899739712 0.10391337425
          0.11575572193 0.09899263829 0.098644174635 0.10228923708 0.11924929172 0.094467125833
          0.10150235891 0.094402693212 0.10428167135 0.099955931306 0.1158047691 0.1175205484
          0.10865145177 0.12294267118 0.10866315663 0.11304172128 0.10865107179 0.12285070866
          0.11735305935 0.10866966099 0.099815756083 0.073406435549 0.08877915889 0.069287903607
          0.099410638213 0.090711280704 0.12534444034 0.12541629374 0.10479415953 0.14276574552
          0.10806569457 0.12201440334 0.10141482949 0.14686690271 0.13623741269 0.11475534737
          0.079997204244 0.054433494806 0.07721310854 0.04665767774 0.09498848021 0.082442477345
          0.13421790302 0.13267044723 0.10137857497 0.16085398197 0.10758449882 0.13026183844
          0.094990067184 0.16866317391 0.15313181281 0.12010800093 0.06221159175 0.037072714418
          0.067212872207 0.027207216248 0.090415254235 0.073707289994 0.14221335948 0.14061126113
          0.099197268486 0.17730671167 0.10717722774 0.13674911857 0.091159343719 0.18714760244
          0.16644524038 0.12308422476 0.047894287854 0.021115794778 0.058960795403 0.010749705136
          0.085567221045 0.06418492645 0.14959546924 0.14936757088 0.098469048738 0.19254685938