<VTKFile type="UnstructuredGrid" version="1.0" byte_order="LittleEndian" header_type="UInt64">
  <UnstructuredGrid>
    <Piece NumberOfPoints="791" NumberOfCells="973">
      <PointData>
        <DataArray type="Float32" Name="ux" format="ascii" RangeMin="-0.001264423714" RangeMax="0.0013733499218">
          -7.3598380368e-06 3.7971709389e-05 -5.7941259001e-05 4.3064710553e-06 1.582425466e-05 6.7893066444e-05
          -2.8413949622e-05 1.9000812244e-05 2.6375220841e-05 4.3070449465e-05 4.2397969082e-06 -1.6918609617e-05
          -1.0115295481e-05 -3.4169050195e-05 -1.9947628971e-05 -4.2635700083e-05 2.9127269954e-05 5.1313509175e-05
          7.1534086601e-05 4.6926033974e-06 -6.0882346588e-05 6.8952591391e-05 -5.8406491007e-05 7.9752549937e-05
          4.4602879825e-06 -6.9855079346e-05 4.2506476348e-06 0.00037212079042 -0.00019460788462 -0.00039796327474
          0.00038080179365 -0.00018842608551 -0.00039217947051 0.00045330051216 0.0004590791068 0.00095445330953
          0.00095225335099 -0.00017084085266 -0.00083572469885 -0.00056446465896 -0.00015912050731 -0.00079514819663
          -0.00054980267305 -0.00030916961259 -0.00028143639793 -1.2214337403e-05 -5.7179909163e-06 0.00041502772365
          0.00041171108023 -0.0011171175865 -0.0010904396186 0.00028529044357 0.00027445127489 0.00080936437007
          0.00078068487346 0.0010924814269 0.0010794022819 -0.0009770845063 -0.00096054410096 0.00036082239239
          -0.00020083639538 -0.00040119551704 0.0004431331763 0.00093644607114 -0.00017785814998 -0.00084112014156
          -0.00056853680871 -0.00031674574711 -1.9657523808e-05 0.00040591682773 -0.001117084641 0.00027866082382
          0.00080010626698 0.0010778399883 -0.00097406114219 0.00034919637255 -0.00020715749997 -0.00040456891293
          0.00043382009608 0.00092317961389 -0.00018679299683 -0.0008569099009 -0.00057670293609 -0.0003290711611
          -2.7188221793e-05 0.00040087400703 -0.0011263870401 0.00027559907176 0.00080095347948 0.0010720193386
          -0.00097595225088 0.00033775277552 -0.00021398512763 -0.00040857255226 0.00042450235924 0.00090912193991
          -0.0001955988846 -0.00087053095922 -0.00058450037614 -0.00034062284976 -3.4965931263e-05 0.00039475204539
          -0.0011339701014 0.00027156007127 0.00079919246491 0.0010640530381 -0.00097764737438 0.0003261094098
          -0.00022091358551 -0.00041276740376 0.00041485897964 0.00089510512771 -0.00020459144434 -0.00088454014622
          -0.00059247692116 -0.00035239534918 -4.293458187e-05 0.00038844993105 -0.0011420334922 0.00026728605735
          0.00079741835361 0.0010561774252 -0.00097971502692 0.00031445658533 -0.00022809430084 -0.0004173075431
          0.0004051681899 0.00088114337996 -0.00021372767515 -0.00089844374452 -0.00060065987054 -0.00036418257514
          -5.1077968237e-05 0.00038192243665 -0.0011502351845 0.00026269687805 0.00079518638086 0.0010480905185
          -0.00098219327629 0.00030279220664 -0.00023545946169 -0.00042214681162 0.00039537102566 0.00086727098096
          -0.00022297154646 -0.00091226398945 -0.00060898385709 -0.00037597003393 -5.9375564888e-05 0.00037516540033
          -0.0011585907778 0.00025780135184 0.00079255556921 0.0010398495942 -0.00098506070208 0.00029116077349
          -0.00024300707446 -0.00042729268898 0.00038551675971 0.00085353874601 -0.00023230374791 -0.00092594168382
          -0.00061744189588 -0.0003877185809 -6.7807319283e-05 0.0003681985836 -0.0011670743115 0.00025260282564
          0.00078950688476 0.0010314682731 -0.00098832964431 0.00027959718136 -0.00025072021526 -0.00043274194468
          0.00037562765647 0.00083999481285 -0.00024169901735 -0.0009394325316 -0.00062601279933 -0.00039939125418
          -7.6354524936e-05 0.00036103124148 -0.001175669604 0.00024710249272 0.00078603258589 0.0010229677428
          -0.0009920099983 0.00026813716977 -0.00025858645677 -0.00043849527719 0.00036573022953 0.00082668586401
          -0.00025113503216 -0.0009526895592 -0.00063467904693 -0.00041095237248 -8.4999213868e-05 0.00035367373494
          -0.0011843574466 0.00024130084785 0.00078212091466 0.0010143649997 -0.00099611154292 0.00025681525585
          -0.00026659382274 -0.00044455402531 0.00035584915895 0.00081365846563 -0.00026058990625 -0.00096566724824
          -0.00064342370024 -0.00042236674926 -9.3724614999e-05 0.000346134766 -0.0011931216577 0.00023519675597
          0.00077775906539 0.0010056772735 -0.0010006467346 0.00024566511274 -0.00027473180671 -0.00045092118671
          0.00034600816434 0.00080095801968 -0.00027004312142 -0.00097832083702 -0.00065223121783 -0.00043360033305
          -0.0001025151505 0.00033842190169 -0.0012019464048 0.00022878778691 0.00077293266077 0.00099691993091
          -0.0010056288447 0.0002347190748 -0.00028299118276 -0.00045760118519 0.00033622959745 0.00078862905502
          -0.00027947541093 -0.00099060672801 -0.00066108739702 -0.00044462026563 -0.00011135660316 0.00033054110827
          -0.0012108174851 0.00022206995345 0.00076762575191 0.00098810717463 -0.0010110733565 0.0002240081958
          -0.00029136429657 -0.00046460007434 0.00032653438393 0.00077671458712 -0.00028886893415 -0.0010024824878
          -0.00066997949034 -0.00045539499843 -0.00012023622548 0.00032249698415 -0.0012197222095 0.00021503772587
          0.00076182076009 0.00097925181035 -0.0010169969173 0.0002135620598 -0.00029984518187 -0.00047192565398
          0.00031694208155 0.00076525646728 -0.00029820742202 -0.0010139071383 -0.00067889632192 -0.0004658944963
          -0.00012914289255 0.0003142922651 -0.0012286495185 0.00020768376999 0.00075549812755 0.00097036501393
          -0.0010234183865 0.00020340825722 -0.00030842929846 -0.00047958720825 0.00030746986158 0.0007542942767
          -0.00030747661367 -0.001024841913 -0.00068782857852 -0.00047609064495 -0.00013806718925 0.00030592855182
          -0.0012375897495 0.0001999992819 0.00074863701593 0.0009614561568 -0.001030357671 0.00019357397105
          -0.00031711522024 -0.00048759730998 0.00029813527362 0.00074386812048 -0.0003166628303 -0.0010352474637
          -0.00069676863495 -0.00048595582484 -0.00014700158499 0.0002974034287 -0.0012465355685 0.00019197215443
          0.00074121245416 0.00095253280597 -0.001037839218 0.0001840791665 -0.00032589951297 -0.00049596535973
          0.00028894719435 0.00073400774272 -0.0003257584176 -0.0010450949194 -0.00070571096148 -0.00049546954688
          -0.00015594052093 0.00028871904942 -0.0012554813875 0.00018359351088 0.00073320581578 0.00094360049115
          -0.0010458806064 0.00017495396605 -0.00033478921978 -0.00050471618306 0.00027992599644 0.00072476227069
          -0.00033474952215 -0.0010543375975 -0.00071465218207 -0.00050460011698 -0.00016488057736 0.0002798619098
          -0.001264423714 0.00017484006821 0.00072457478382 0.00093466264661 -0.0010545217665 0.00023250500089
          -0.00010850589751 -0.00022270251065 0.00029511880712 0.00061542837648 -0.00010068064876 -0.00051764503587
          -0.0003490873205 -0.00018231537251 2.9187829114e-06 0.00027632532874 -0.00070527940989 0.00018436719256
          0.00051740836352 0.00070321338717 -0.0006085113273 -7.6083283602e-06 -4.8800677177e-05 -2.1711726731e-05
          2.4886012397e-06 3.3251122659e-05 2.6624929887e-05 5.6004897488e-05 -0.00036468048347 0.00020471651806
          0.00040851411177 -0.0003520603932 0.00021480993018 0.00041822181083 -0.00044297197019 -0.00043328542961
          -0.00093633128563 -0.00093456049217 0.00017540625413 0.00081160257105 0.00056617130758 0.00019104449893
          0.00085614668205 0.00058478233404 0.0002977719123 0.00032943120459 2.1982728867e-05 3.2357998862e-05
          -0.0003956099099 -0.0003950119717 0.0011069281027 0.0011376008624 -0.00025832280517 -0.00026523199631
          -0.00076475314563 -0.00078947620932 -0.0010635908693 -0.0010726501932 0.0009769849712 0.00099751050584
          -0.00033664249349 0.00022516437457 0.00042557934648 -0.00041899053031 -0.00091243907809 0.00020218576537
          0.00086565938545 0.00059297378175 0.00034112873254 4.3934294808e-05 -0.0003817746765 0.001141680521
          -0.00025448168162 -0.0007760997396 -0.0010539023206 0.00099859840702 -0.00032072956674 0.00023577167303
          0.00043323784485 -0.00040539129986 -0.00089488376398 0.00021540740272 0.00088573712856 0.00060542771826
          0.00035774111166 5.5749871535e-05 -0.00037244550185 0.0011552721262 -0.00024713276071 -0.00077265856089
          -0.0010437904857 0.00100477878 -0.0003048502258 0.00024703575764 0.00044167781016 -0.00039163694601
          -0.00087638990954 0.00022864961647 0.00090379465837 0.00061766174622 0.00037372845691 6.7964530899e-05
          -0.00036188683589 0.0011672921246 -0.00023865808907 -0.00076646130765 -0.001031388063 0.0010109102586
          -0.00028863674379 0.00025853476836 0.00045044271974 -0.00037742283894 -0.00085780222435 0.00024221272906
          0.00092237466015 0.00063020916423 0.00039007110172 8.0503799836e-05 -0.00035101402318 0.0011799267959
          -0.000229813857 -0.00076011620695 -0.0010189409368 0.0010175488424 -0.00027229456464 0.00027040531859
          0.00045967233018 -0.00036304205423 -0.00083915051073 0.00025603876566 0.00094096822431 0.0006430822541
          0.00040654768236 9.3337170256e-05 -0.0003397964756 0.0011928189779 -0.00022053526482 -0.00075319415191
          -0.0010061637731 0.0010247171158 -0.00025583588285 0.00028256521909 0.00046930593089 -0.00034845000482
          -0.00082048313925 0.00027007737663 0.00095958349993 0.00065620121313 0.00042312944424 0.00010642965208
          -0.00032824455411 0.0012059699511 -0.00021084536274 -0.00074576830957 -0.00099312735256 0.0010323796887
          -0.0002393189061 0.00029499878292 0.00047933738097 -0.00033370967139 -0.00080186483683 0.00028429550002
          0.00097814726178 0.00066954549402 0.00043976353481 0.00011974746303 -0.0003163916117 0.0012193401344
          -0.00020076127839 -0.00073783344124 -0.00097985949833 0.0010405348148 -0.00022279167024 0.00030767597491
          0.00048975035315 -0.0003188563569 -0.00078335666331 0.00029865483521 0.00099660234991 0.00068308075424
          0.00045639986638 0.00013325884356 -0.00030426005833 0.0012328999583 -0.00019029725809 -0.0007293948438
          -0.00096639437834 0.0010491794674 -0.00020630215295 0.00032057208591 0.00050053320592 -0.00030392894405
          -0.00076501769945 0.00031312069041 0.0010148894507 0.00069677707506 0.00047299050493 0.00014693351113
          -0.00029187253676 0.0012466183398 -0.00017946606386 -0.00072045304114 -0.00095276132924 0.0010583112016
          -0.00018989642558 0.00033366362914 0.00051167584024 -0.00028896357981 -0.0007469059783 0.00032765974174
          0.0010329515208 0.00071060610935 0.00048948870972 0.00016074319137 -0.00027924927417 0.0012604672229
          -0.00016827810032 -0.00071100681089 -0.0009389888728 0.0010679307161 -0.00017361866776 0.0003469294752
          0.00052317063091 -0.00027399457758 -0.00072907749563 0.00034224084811 0.0010507331463 0.00072454172187
          0.00050584989367 0.00017466170539 -0.00026640837314 0.0012744202977 -0.000156741502 -0.00070105236955
          -0.00092510320246 0.0010780409211 -0.00015751093451 0.00036035085213 0.00053501233924 -0.00025905395159
          -0.00071158638457 0.00035683508031 0.001068181009 0.00073856004747 0.00052203150699 0.00018866521714
          -0.00025336552062 0.0012884538155 -0.00014486194414 -0.00069058331428 -0.00091112812515 0.0010886475211
          -0.00014161283616 0.00037391143269 0.00054719852051 -0.00024417121313 -0.00069448439172 0.00037141607027
          0.001085244352 0.00075263978215 0.0005379934446 0.00020273237897 -0.0002401338279 0.0013025463559
          -0.00013264243898 -0.0006795906811 -0.00089708500309 0.0010997587815 -0.00012596142187 0.0003875978
          0.00055972934933 -0.00022937332687 -0.00067782070255 0.00038596004015 0.0011018747464 0.00076676224126
          0.00055369822076 0.00021684459352 -0.00022672355408 0.0013166794088 -0.00012008318299 -0.00066806247924
          -0.00088299240451 0.0011113858782 -0.00011059056851 0.00040139909834 0.00057260796893 -0.00021468386694
          -0.00066164124291 0.00040044641355 0.0011180267902 0.00078091176692 0.00056911143474 0.00023098614474
          -0.00021314257174 0.0013308371417 -0.00010718163685 -0.00065598404035 -0.0008688661037 0.0011235425482
          -9.5532494015e-05 0.00041530895396 0.0005858418881 -0.00020012531604 -0.00064599112375 0.00041485653492
          0.0011336562457 0.00079507584451 0.00058420043206 0.00024514447432 -0.00019939347112 0.0013450070983
          -9.3930699222e-05 -0.00064333545743 -0.00085471867351 0.001136248 -8.0810830696e-05 0.00042932014912
          0.00059943681117 -0.00018571029068 -0.00063090375625 0.00042917908286 0.0011487306328 0.00080924516078
          0.00059894099832 0.00025931038545 -0.00018548214575 0.0013591798488 -8.0325182353e-05 -0.0006301018293
          -0.00084055931075 0.0011495163199 -6.6457978392e-05 0.00044343754416 0.00061341532273 -0.00017146140453
          -0.00061643059598 0.00044339784654 0.0011632009409 0.0008234140696 0.00061329925666 0.00027347813011
          -0.0001713973179 0.0013733499218 -6.6344065999e-05 -0.00061624310911 -0.00082639377797 0.0011633852264
          -0.0002215741988 0.0001201491541 0.00023381428036 -0.00028346705949 -0.00060415023472 0.00011353020818
          0.00053108128486 0.00036153531983 0.00019586960843 9.1600950327e-06 -0.00026388501283 0.00071805965854
          -0.00017101218691 -0.00050458312035 -0.00069104746217 0.00062040350167 1.9138689822e-05 6.0331396526e-05
          3.4050950489e-05 8.2718888734e-06 -2.2266767701e-05 -1.4496882613e-05 -4.484627425e-05 -0.00020525536092
          2.8054557788e-06 0.00021089575603 0.00011746558448 2.8278582249e-06 -0.00011185625772 2.8072784062e-06
          -0.00011481458932 2.7999644772e-06 -0.00020441514789 0.00021003973961 2.8168412882e-06 0.0001205072258
          -0.00017369644775 1.7261750145e-06 0.00017714434944 9.6971620223e-05 1.7194579414e-06 -9.3492635642e-05
          1.7225722786e-06 -9.2579517514e-05 1.7194643078e-06 -0.00017355084128 0.00017697662406 1.7066541886e-06
          9.6026247775e-05 -0.00018243686645 9.2567643151e-07 0.00018429388001 0.00010046377429 9.2645365157e-07
          -9.8593940493e-05 9.2377973715e-07 -9.882656741e-05 9.211190104e-07 -0.00018256584008 0.00018440600252
          9.1701616611e-07 0.00010069632845 -0.00017239515728 3.8993516682e-07 0.00017317863239 9.4513474323e-05
          3.9055262846e-07 -9.3710077635e-05 3.9061458779e-07 -9.3668269983e-05 3.8878377495e-07 -0.00017235812265
          0.00017313259013 3.8393611135e-07 9.4466522569e-05 -0.00020816923643 8.8675861321e-08 0.00020835238684
          0.00011323851504 9.0448544654e-08 -0.00011303161591 9.0389868035e-08 -0.00011303689826 8.920432748e-08
          -0.00020818140183 0.00020835964824 8.581494626e-08 0.0001132423422 0 0
          0 0 0 0 0 0
          0 0 0 0 0
        </DataArray>
        <DataArray type="Float32" Name="uy" format="ascii" RangeMin="-1.08867383" RangeMax="0">
          -0.089381560683 -0.097429178655 -0.10059221834 -0.088045097888 -0.089381687343 -0.10059389472
          -0.097428247333 -0.089396908879 -0.095598034561 -0.090930245817 -0.088067404926 -0.095597490668
          -0.089396692812 -0.090930476785 -0.095618240535 -0.090934827924 -0.095619477332 -0.090935155749
          -0.10580801964 -0.094934679568 -0.10580752045 -0.10589049011 -0.10589012504 -0.10588178039
          -0.09496345371 -0.10588014126 -0.087064117193 -0.20211350918 -0.20266768336 -0.20211185515
          -0.16270372272 -0.16328392923 -0.16270002723 -0.20289003849 -0.16351014376 -0.20259647071
          -0.16319544613 -0.20370858908 -0.20387899876 -0.20322555304 -0.16433407366 -0.16452296078
          -0.1638545841 -0.20419074595 -0.16481767595 -0.20320257545 -0.16383077204 -0.20353272557
          -0.16416357458 -0.20329086483 -0.16392239928 -0.20419305563 -0.16481992602 -0.20387859643
          -0.16452595592 -0.20328938961 -0.16392035782 -0.20259641111 -0.16319656372 -0.24331177771
          -0.24386835098 -0.24330972135 -0.24408963323 -0.2437889576 -0.24491420388 -0.24508240819
          -0.24442622066 -0.24540251493 -0.24440512061 -0.2447360754 -0.24448513985 -0.24540440738
          -0.24508272111 -0.24448378384 -0.24378883839 -0.28617465496 -0.28672689199 -0.28617295623
          -0.28694596887 -0.28664410114 -0.28777208924 -0.28793564439 -0.28728097677 -0.28826290369
          -0.28726199269 -0.2875919342 -0.28733435273 -0.28826466203 -0.28793570399 -0.28733310103
          -0.28664401174 -0.33053421974 -0.33108368516 -0.33053267002 -0.33130076528 -0.33099648356
          -0.33212888241 -0.33228841424 -0.33163455129 -0.33262318373 -0.33161747456 -0.33194673061
          -0.33168244362 -0.33262476325 -0.33228853345 -0.33168131113 -0.33099639416 -0.37623810768
          -0.37678456306 -0.37623670697 -0.37699970603 -0.37669339776 -0.37782987952 -0.37798538804
          -0.37733232975 -0.37832731009 -0.37731719017 -0.37764576077 -0.37737491727 -0.37832871079
          -0.37798547745 -0.37737393379 -0.37669333816 -0.42313680053 -0.42368042469 -0.42313557863
          -0.42389374971 -0.42358538508 -0.42472580075 -0.42487746477 -0.42422521114 -0.42522630095
          -0.4242118597 -0.42453980446 -0.42426267266 -0.42522752285 -0.42487752438 -0.4242618084
          -0.42358532548 -0.47108647227 -0.47162738442 -0.47108542919 -0.47183892131 -0.47152864933
          -0.47267282009 -0.47282078862 -0.47216933966 -0.47317624092 -0.47215771675 -0.47248503566
          -0.47220188379 -0.4731773138 -0.47282084823 -0.47220113873 -0.47152858973 -0.51994943619
          -0.52048778534 -0.51994854212 -0.52069759369 -0.52038550377 -0.52153325081 -0.52167767286
          -0.52102696896 -0.52203947306 -0.52101701498 -0.52134376764 -0.52105486393 -0.52204036713
          -0.52167773247 -0.52105420828 -0.52038544416 -0.56959474087 -0.57013064623 -0.56959396601
          -0.57033890486 -0.5700250268 -0.5711761713 -0.5713173151 -0.57066726685 -0.57168495655
          -0.5706589222 -0.57098507881 -0.57069081068 -0.57168573141 -0.57131737471 -0.57069027424
          -0.57002496719 -0.6198989749 -0.62043261528 -0.61989831924 -0.62063938379 -0.62032389641
          -0.62147819996 -0.62161624432 -0.62096685171 -0.621989429 -0.62095993757 -0.62128555775
          -0.62098628283 -0.62199008465 -0.62161630392 -0.62098580599 -0.62032389641 -0.6707469821
          -0.67127853632 -0.67074650526 -0.67148393393 -0.67116695642 -0.672324121 -0.67245936394
          -0.67181056738 -0.67283767462 -0.67180502415 -0.67213016748 -0.6718262434 -0.67283815145
          -0.67245936394 -0.67182582617 -0.67116695642 -0.722032547 -0.72256219387 -0.72203218937
          -0.72276633978 -0.72244805098 -0.72360783815 -0.72374045849 -0.72309225798 -0.72412341833
          -0.72308790684 -0.72341257334 -0.72310441732 -0.72412383556 -0.72374051809 -0.72310417891
          -0.72244799137 -0.77365916967 -0.77418708801 -0.77365887165 -0.77439016104 -0.77407062054
          -0.7752327919 -0.77536308765 -0.77471536398 -0.77575016022 -0.77471208572 -0.7750363946
          -0.77472448349 -0.77575045824 -0.77536308765 -0.77472430468 -0.77407062054 -0.82554066181
          -0.82606714964 -0.825540483 -0.82626920938 -0.82594865561 -0.82711279392 -0.82724112272
          -0.82659381628 -0.82763183117 -0.8265914917 -0.82691550255 -0.82660031319 -0.82763200998
          -0.82724118233 -0.82660013437 -0.825948596 -0.87760215998 -0.87812739611 -0.87760204077
          -0.87832868099 -0.87800717354 -0.87917309999 -0.87929975986 -0.87865275145 -0.87969344854
          -0.87865126133 -0.87897497416 -0.87865698338 -0.87969356775 -0.87929975986 -0.87865692377
          -0.87800717354 -0.92978066206 -0.93030488491 -0.92978054285 -0.93050551414 -0.93018329144
          -0.9313505888 -0.93147587776 -0.93082922697 -0.93187201023 -0.9308283329 -0.93115180731
          -0.93083167076 -0.93187206984 -0.93147587776 -0.93083161116 -0.93018329144 -0.98202574253
          -0.98254925013 -0.98202574253 -0.98274940252 -0.98242670298 -0.98359501362 -0.9837192893
          -0.98307281733 -0.98411715031 -0.98307240009 -0.98339569569 -0.98307394981 -0.98411720991
          -0.9837192893 -0.98307394981 -0.98242670298 -1.0343005657 -1.0348236561 -1.0343005657
          -1.0350234509 -1.0347005129 -1.03586936 -1.0359930992 -1.0353467464 -1.0363919735
          -1.0353466272 -1.0356698036 -1.0353471041 -1.0363919735 -1.0359930992 -1.0353469849
          -1.0347005129 -1.0865824223 -1.0871052742 -1.0865824223 -1.087305069 -1.0869818926
          -1.0881509781 -1.0882744789 -1.0876282454 -1.08867383 -1.0876281261 -1.0879513025
          -1.0876282454 -1.08867383 -1.0882744789 -1.0876282454 -1.0869818926 -0.11259019375
          -0.11902983487 -0.11258197576 -0.1214736402 -0.11753896624 -0.13158465922 -0.13313163817
          -0.12537260354 -0.13780742884 -0.12534683943 -0.12922413647 -0.1254247874 -0.13780654967
          -0.13313487172 -0.12542705238 -0.11754923314 -0.11431019753 -0.11633767188 -0.12285894901
          -0.10578974336 -0.11106023192 -0.12285424769 -0.11633060873 -0.16270203888 -0.16328246891
          -0.1626983583 -0.20211155713 -0.20266588032 -0.202109918 -0.16350857913 -0.20288832486
          -0.16319383681 -0.20259463787 -0.16433286667 -0.16452176869 -0.16385324299 -0.20370709896
          -0.20387755334 -0.20322391391 -0.16481663287 -0.20418940485 -0.16382940114 -0.20320093632
          -0.16416232288 -0.20353119075 -0.16392104328 -0.2032892257 -0.16481889784 -0.20419172943
          -0.16452482343 -0.20387715101 -0.16391895711 -0.20328775048 -0.1631950438 -0.20259457827
          -0.24330952764 -0.24386626482 -0.24330748618 -0.24408760667 -0.24378682673 -0.24491243064
          -0.24508066475 -0.24442429841 -0.24540089071 -0.24440319836 -0.24473424256 -0.2444832027
          -0.24540279806 -0.24508099258 -0.24448184669 -0.24378672242 -0.28617212176 -0.28672450781
          -0.28617042303 -0.28694364429 -0.28664165735 -0.28777003288 -0.28793361783 -0.2872787416
          -0.28826099634 -0.28725975752 -0.28758981824 -0.28733214736 -0.28826275468 -0.28793367743
          -0.28733089566 -0.28664159775 -0.33053138852 -0.33108097315 -0.330529809 -0.33129811287
          -0.33099374175 -0.33212649822 -0.33228605986 -0.33163198829 -0.33262094855 -0.33161494136
          -0.33194428682 -0.33167988062 -0.33262255788 -0.33228620887 -0.33167877793 -0.33099368215
          -0.37623491883 -0.37678155303 -0.37623354793 -0.3769967556 -0.37669032812 -0.37782716751
          -0.37798270583 -0.37732946873 -0.37832477689 -0.37731432915 -0.37764301896 -0.37737205625
          -0.3783261776 -0.37798282504 -0.37737107277 -0.37669026852 -0.42313328385 -0.42367708683
          -0.42313206196 -0.42389044166 -0.42358198762 -0.42472276092 -0.42487445474 -0.42422202229
          -0.42522341013 -0.42420867085 -0.42453670502 -0.42425948381 -0.42522466183 -0.42487454414
          -0.42425861955 -0.42358192801 -0.47108262777 -0.47162371874 -0.47108158469 -0.47183531523
          -0.47152489424 -0.47266945243 -0.47281745076 -0.47216579318 -0.47317302227 -0.47215420008
          -0.47248160839 -0.47219836712 -0.47317409515 -0.47281751037 -0.47219759226 -0.47152486444
          -0.51994526386 -0.52048373222 -0.51994431019 -0.52069365978 -0.52038139105 -0.52152949572
          -0.52167403698 -0.52102309465 -0.52203589678 -0.52101314068 -0.52133995295 -0.52105098963
          -0.52203679085 -0.52167409658 -0.52105033398 -0.52038139105 -0.56959021091 -0.57012623549
          -0.56958943605 -0.57033455372 -0.57002061605 -0.57117205858 -0.57131326199 -0.57066303492
          -0.57168108225 -0.57065469027 -0.57098090649 -0.57068657875 -0.57168185711 -0.57131332159
          -0.57068604231 -0.57002055645 -0.61989408731 -0.62042790651 -0.61989343166 -0.62063473463
          -0.62031912804 -0.62147372961 -0.62161183357 -0.62096226215 -0.62198519707 -0.62095534801
          -0.6212810874 -0.62098169327 -0.62198579311 -0.62161189318 -0.62098121643 -0.62031906843
          -0.67074173689 -0.67127346992 -0.67074126005 -0.67147892714 -0.67116183043 -0.67231935263
          -0.67245459557 -0.67180562019 -0.67283302546 -0.67180007696 -0.67212533951 -0.67182129622
          -0.6728335619 -0.67245465517 -0.67182093859 -0.67116183043 -0.72202694416 -0.72255676985
          -0.72202652693 -0.72276097536 -0.72244250774 -0.72360271215 -0.72373533249 -0.72308695316
          -0.72411841154 -0.72308260202 -0.72340738773 -0.72309911251 -0.72411882877 -0.72373539209
          -0.72309887409 -0.72244250774 -0.7736531496 -0.77418130636 -0.77365291119 -0.77438437939
          -0.77406471968 -0.77522724867 -0.77535760403 -0.77470970154 -0.7757447958 -0.77470642328
          -0.77503085136 -0.77471882105 -0.77574509382 -0.77535760403 -0.77471858263 -0.77406471968
          -0.82553434372 -0.82606095076 -0.8255341053 -0.82626307011 -0.82594239712 -0.82710695267
          -0.82723528147 -0.82658779621 -0.82762610912 -0.82658547163 -0.82690954208 -0.82659429312
          -0.82762628794 -0.82723534107 -0.8265941143 -0.82594239712 -0.87759548426 -0.8781208396
          -0.87759530544 -0.87832218409 -0.87800061703 -0.87916684151 -0.87929350138 -0.87864637375
          -0.87968730927 -0.87864482403 -0.87896865606 -0.87865060568 -0.87968748808 -0.87929350138
          -0.87865048647 -0.87800055742 -0.92977356911 -0.93029797077 -0.9297735095 -0.93049865961
          -0.9301763773 -0.93134397268 -0.93146932125 -0.93082243204 -0.93186551332 -0.93082153797
          -0.93114513159 -0.93082487583 -0.93186557293 -0.93146932125 -0.93082481623 -0.93017631769
          -0.98201829195 -0.98254197836 -0.98201823235 -0.98274219036 -0.9824193716 -0.98358798027
          -0.98371231556 -0.98306566477 -0.98411029577 -0.98306524754 -0.98338866234 -0.98306679726
          -0.98411035538 -0.98371231556 -0.98306679726 -0.9824193716 -1.0342926979 -1.0348159075
          -1.0342926979 -1.0350158215 -1.0346927643 -1.035861969 -1.0359857082 -1.0353392363
          -1.0363848209 -1.0353391171 -1.0356624126 -1.0353394747 -1.0363848209 -1.0359857082
          -1.0353394747 -1.0346927643 -1.0865741968 -1.0870972872 -1.0865741968 -1.0872970819
          -1.0869737864 -1.0881432295 -1.0882668495 -1.0876203775 -1.0886662006 -1.0876202583
          -1.0879435539 -1.0876203775 -1.0886662006 -1.0882668495 -1.0876203775 -1.0869737864
          -0.11258917302 -0.11902863532 -0.11258089542 -0.12147309631 -0.11753823608 -0.13158388436
          -0.13313086331 -0.12537159026 -0.13780674338 -0.12534597516 -0.12922334671 -0.12542384863
          -0.13780581951 -0.13313406706 -0.12542647123 -0.117548123 -0.11430990696 -0.11633757502
          -0.12285857648 -0.1057895869 -0.11105986685 -0.12285408378 -0.11633043736 -0.057918034494
          -0.057953741401 -0.057918109 -0.057745646685 -0.05786087364 -0.057745728642 -0.057839222252
          -0.057747960091 -0.057864427567 -0.057912874967 -0.057912837714 -0.057941991836 -0.057747997344
          -0.035507064313 -0.035612180829 -0.035507049412 -0.035297039896 -0.035397090018 -0.035297024995
          -0.035358253866 -0.035296849906 -0.035396527499 -0.035508669913 -0.035508710891 -0.035615395755
          -0.035296868533 -0.019121557474 -0.019209673628 -0.019121574238 -0.018916720524 -0.019021261483
          -0.018916720524 -0.0189844165 -0.018916647881 -0.019021321088 -0.019121099263 -0.01912111789
          -0.019208846614 -0.01891666837 -0.0081444820389 -0.0082302233204 -0.0081444932148 -0.0079485531896
          -0.0080497357994 -0.0079485494643 -0.0080144060776 -0.007948577404 -0.0080497302115 -0.0081445816904
          -0.0081446021795 -0.0082304133102 -0.0079485923052 -0.0020476453938 -0.0021555712447 -0.0020476633217
          -0.0018106052885 -0.0019251495833 -0.0018105964409 -0.0018814119976 -0.0018105843337 -0.0019251522608
          -0.0020476265345 -0.0020476472564 -0.0021555342246 -0.0018105986528 0 0
          0 0 0 0 0 0
          0 0 0 0 0
        </DataArray>
        <DataArray type="Float32" Name="uz" format="ascii" RangeMin="-0.029402328655" RangeMax="0.029419902712">
          -0.0046987240203 0.0026927581057 -0.0071386476047 -0.0057837795466 -0.0046998858452 -0.0071395523846
          0.0026905201375 0.0046992637217 0.015783168375 0.012318275869 0.0057667149231 0.015782192349
          0.0046973093413 0.012317859568 -0.015775252134 -0.012322817929 -0.015776481479 -0.012323493138
          0.0089400187135 0.015422012657 0.0089395474643 0.017920717597 0.017920168117 -0.017938431352
          -0.015448469669 -0.017937954515 8.9486302386e-06 -0.0069930241443 0.0035074257758 0.0070135486312
          -0.0066702677868 0.003350475803 0.0066874963231 -0.0091546438634 -0.0087434481829 -0.018325392157
          -0.017477791756 0.0035050823353 0.018339613453 0.011331466958 0.0033336835913 0.017434153706
          0.010812100023 0.0070083332248 0.0066459467635 6.0260113059e-06 5.7479355746e-06 -0.0091596646234
          -0.0087226340547 0.02266654931 0.021602440625 -0.0070032910444 -0.0066418824717 -0.01833374612
          -0.017425836995 -0.022653298452 -0.021592563018 0.018340218812 0.017499120906 -0.0072939335369
          0.0036594953854 0.0073139457963 -0.0095526631922 -0.019114427269 0.0036554201506 0.019126966596
          0.011822610162 0.0073066456243 5.9508824961e-06 -0.0095549691468 0.023644443601 -0.0073024802841
          -0.019120654091 -0.02363161929 0.019130777568 -0.0075686830096 0.0037965797819 0.0075891409069
          -0.0099113881588 -0.019833642989 0.0037925168872 0.019844334573 0.01226608362 0.0075806579553
          5.9718668126e-06 -0.0099139716476 0.024531830102 -0.0075766486116 -0.01983817108 -0.024518985301
          0.01984984614 -0.0078155146912 0.0039202366024 0.007836131379 -0.010234882124 -0.020480029285