<VTKFile type="UnstructuredGrid" version="1.0" byte_order="LittleEndian" header_type="UInt64">
  <UnstructuredGrid>
    <Piece NumberOfPoints="791" NumberOfCells="973">
      <PointData>
        <DataArray type="Float32" Name="ux" format="ascii" RangeMin="-2.0508151054" RangeMax="1.0967165232">
          -0.47150027752 -0.48056045175 -0.49040994048 -0.46812596917 -0.47279924154 -0.49002018571
          -0.48194012046 -0.4665081501 -0.47379249334 -0.46510368586 -0.46207126975 -0.47487425804
          -0.46781751513 -0.4667519927 -0.48924544454 -0.47808307409 -0.48948639631 -0.47845503688
          -0.48786383867 -0.47423025966 -0.48899140954 -0.48327690363 -0.48518398404 -0.50106543303
          -0.49023753405 -0.50271725655 -0.46221810579 -0.26589435339 -0.28849992156 -0.29417100549
          -0.42220112681 -0.43794432282 -0.44326877594 -0.26284238696 -0.41961675882 -0.24473118782
          -0.40791517496 -0.28738957644 -0.31924173236 -0.30511566997 -0.43456023932 -0.45530122519
          -0.44855773449 -0.29290488362 -0.43498072028 -0.28135272861 -0.43155258894 -0.26228988171
          -0.41844284534 -0.32980152965 -0.46677187085 -0.26377937198 -0.41686213017 -0.24338251352
          -0.40607595444 -0.23661188781 -0.40286120772 -0.31935584545 -0.46162262559 -0.061210919172
          -0.089156754315 -0.098627716303 -0.054657503963 -0.03106318973 -0.088538900018 -0.13065388799
          -0.1107827723 -0.097765594721 -0.079184480011 -0.05332377553 -0.14254267514 -0.057636577636
          -0.027311876416 -0.017731687054 -0.12989410758 0.15404839814 0.11929745972 0.10665404797
          0.16354703903 0.19402268529 0.11999838054 0.067122787237 0.092437468469 0.10730897635
          0.13227628171 0.16503429413 0.053091842681 0.15815061331 0.19850856066 0.21133331954
          0.068704597652 0.35360267758 0.31233593822 0.29696619511 0.36514133215 0.40184393525
          0.3133893609 0.2504337132 0.28057515621 0.29812127352 0.32769757509 0.36700037122
          0.23362980783 0.35846787691 0.40671947598 0.42311993241 0.25172296166 0.53034591675
          0.48242974281 0.46476352215 0.54369741678 0.58658868074 0.48359897733 0.41091793776
          0.44562795758 0.46598401666 0.50032305717 0.54574900866 0.39126345515 0.53607189655
          0.59219163656 0.61098146439 0.41235500574 0.6826748848 0.62658113241 0.60662746429
          0.697460711 0.7472268939 0.62748509645 0.54346781969 0.58379048109 0.60717070103
          0.64686489105 0.69918471575 0.5209504962 0.68756699562 0.75221508741 0.77460116148
          0.54534846544 0.81665062904 0.75121229887 0.72726148367 0.83348792791 0.89182931185
          0.7519942522 0.65579134226 0.70151126385 0.72827643156 0.77458190918 0.83483344316
          0.62911933661 0.82081317902 0.89596968889 0.92298561335 0.65658932924 0.91426938772
          0.840711236 0.81308293343 0.9332793951 0.99930125475 0.84241783619 0.7358571887
          0.78581678867 0.81658536196 0.86758625507 0.93454509974 0.70487576723 0.91818833351
          1.0022472143 1.0335599184 0.73388820887 0.96036553383 0.87970536947 0.84956294298
          0.98024153709 1.0525391102 0.88113290071 0.76616972685 0.81959468126 0.85359823704
          0.90822505951 0.98094815016 0.7317289114 0.96281421185 1.0534496307 1.0884085894
          0.76275259256 0.9612018466 0.87443107367 0.84237772226 0.9819418788 1.059278965
          0.87635409832 0.75443446636 0.81081938744 0.84692317247 0.90509271622 0.9820805192
          0.71750259399 0.96282190084 1.0588383675 1.0967165232 0.74994105101 0.92244100571
          0.82923042774 0.794919312 0.94497931004 1.0283719301 0.8306131959 0.69903880358
          0.76064115763 0.79810708761 0.86214286089 0.94508600235 0.66034549475 0.92317795753
          1.0276645422 1.0689127445 0.69577306509 0.82038748264 0.72426652908 0.68858158588
          0.84419387579 0.93045729399 0.72552800179 0.58911842108 0.6533357501 0.69122362137
          0.75845187902 0.84442472458 0.54969024658 0.82120978832 0.9299942255 0.97284990549
          0.58631104231 0.63214635849 0.53626334667 0.50034970045 0.65638619661 0.74269932508
          0.53751248121 0.40148323774 0.46562951803 0.50340181589 0.57058620453 0.65681868792
          0.36247980595 0.63358092308 0.74234187603 0.78497421741 0.39895319939 0.36217573285
          0.26684951782 0.23148700595 0.38534483314 0.47062096 0.26731568575 0.13202057779
          0.19597713649 0.23297604918 0.30039790273 0.38523092866 0.093349196017 0.36203798652
          0.47006964684 0.5123898983 0.13000896573 0.016732005402 -0.07975038141 -0.1152402088
          0.040562912822 0.12737450004 -0.078486852348 -0.21648675203 -0.15131144226 -0.11264758557
          -0.045539986342 0.041165597737 -0.25632956624 0.018910825253 0.12846872211 0.1706649065
          -0.21839222312 -0.39293304086 -0.49426516891 -0.52997589111 -0.36934068799 -0.27928331494
          -0.49353861809 -0.63845288754 -0.56984955072 -0.52907806635 -0.45907014608 -0.36847123504
          -0.67977762222 -0.39062902331 -0.27731913328 -0.2346893996 -0.63869923353 -0.84150636196
          -0.9459168911 -0.98142111301 -0.8186929822 -0.72725337744 -0.9449929595 -1.0943307877
          -1.0238717794 -0.98022019863 -0.91016662121 -0.81774407625 -1.1376516819 -0.83897441626
          -0.72516149282 -0.68258392811 -1.0942345858 -1.2999025583 -1.4049918652 -1.4397414923
          -1.2784599066 -1.1869659424 -1.4049762487 -1.5538746119 -1.4835288525 -1.4398127794
          -1.369956851 -1.2781285048 -1.5976895094 -1.2993648052 -1.1862390041 -1.1430323124
          -1.5537581444 -1.7519675493 -1.8578397036 -1.8927793503 -1.7303398848 -1.638065815
          -1.8581137657 -2.0075793266 -1.9368909597 -1.8934259415 -1.8228981495 -1.7304024696
          -2.0508151054 -1.7520438433 -1.6379871368 -1.5945429802 -2.007174015 -0.50806063414
          -0.50752574205 -0.51511108875 -0.49875921011 -0.49839308858 -0.49542596936 -0.50179171562
          -0.5064035058 -0.48885425925 -0.49968916178 -0.49147194624 -0.51347243786 -0.48191016912
          -0.48315289617 -0.48980471492 -0.51787662506 -0.49752497673 -0.49530923367 -0.50311124325
          -0.49196842313 -0.49937719107 -0.50725793839 -0.50773054361 -0.50017160177 -0.49631524086
          -0.49430349469 -0.46605619788 -0.4644280076 -0.46241059899 -0.50088757277 -0.46677058935
          -0.50474202633 -0.46915918589 -0.49568021297 -0.49266606569 -0.49411910772 -0.4640442431
          -0.46419668198 -0.46394991875 -0.49423232675 -0.46309411526 -0.49732083082 -0.46486490965
          -0.49964287877 -0.46555566788 -0.49094811082 -0.46340101957 -0.49677851796 -0.46306571364
          -0.50133419037 -0.46600940824 -0.50494229794 -0.46923232079 -0.49100640416 -0.46183735132
          -0.39814499021 -0.39544981718 -0.39373630285 -0.39944761992 -0.4025080502 -0.39565595984
          -0.39225867391 -0.39395445585 -0.3941129148 -0.39694344997 -0.39927476645 -0.39143535495
          -0.39760497212 -0.40184357762 -0.40409773588 -0.39158526063 -0.30631098151 -0.30025318265
          -0.29799240828 -0.30860006809 -0.31409585476 -0.30052852631 -0.29031375051 -0.2954312861
          -0.29789662361 -0.30272382498 -0.30926546454 -0.28827741742 -0.30815666914 -0.31602573395
          -0.31813916564 -0.29127845168 -0.20957425237 -0.20056131482 -0.19742922485 -0.21246650815
          -0.22019189596 -0.20063641667 -0.18535707891 -0.19307383895 -0.19693855941 -0.20390722156
          -0.21298997104 -0.18165561557 -0.21165926754 -0.22277979553 -0.22571210563 -0.18664458394
          -0.11596760899 -0.1026578024 -0.098069630563 -0.11899363995 -0.13057899475 -0.10199089348
          -0.081573419273 -0.091677390039 -0.097146242857 -0.1068700254 -0.11911105365 -0.076195992529
          -0.11665953696 -0.13213504851 -0.13710039854 -0.082818984985 -0.021547688171 -0.0050284885801
          -0.00017873887555 -0.024679826573 -0.038596708328 -0.0043384772725 0.020207155496 0.0081490632147
          0.0012787624728 -0.010029757395 -0.024797642604 0.02668672055 -0.022084686905 -0.040332943201
          -0.046089112759 0.018823482096 0.065427698195 0.082878112793 0.087873160839 0.062239903957
          0.047563642263 0.083059109747 0.10922091454 0.09670908004 0.08846861124 0.077244460583
          0.06154897809 0.11679475009 0.063804119825 0.045299779624 0.039658471942 0.10769678652
          0.12966449559 0.14715473354 0.15238468349 0.12604556978 0.11129827052 0.14727544785
          0.17347767949 0.16056056321 0.15313360095 0.14138941467 0.12520886958 0.17987759411
          0.12824645638 0.10895758867 0.10312727094 0.17151969671 0.17986153066 0.19661387801
          0.20207288861 0.17580699921 0.16104003787 0.19735394418 0.22353702784 0.21030299366
          0.2042068094 0.19116877019 0.17533497512 0.22937993705 0.17896999419 0.15882946551
          0.15230679512 0.22068238258 0.23715056479 0.25370594859 0.25830361247 0.23340001702
          0.21927644312 0.25484347343 0.28120073676 0.26733005047 0.2615647018 0.2484896481
          0.23292027414 0.28669252992 0.23623466492 0.21638388932 0.21049518883 0.27730041742
          0.29808062315 0.31347537041 0.31643679738 0.2963154912 0.283726722 0.31439980865
          0.33742555976 0.32557031512 0.31926783919 0.30902829766 0.29587927461 0.34262421727
          0.29766958952 0.28177556396 0.27719065547 0.33399352431 0.33264970779 0.34473621845
          0.34634923935 0.33267462254 0.32399725914 0.34490782022 0.36094471812 0.35366725922
          0.346973598 0.34178513288 0.33263847232 0.36652874947 0.33294975758 0.32380360365
          0.32100391388 0.36033239961 0.31655785441 0.3232318759 0.3234591186 0.31781566143
          0.31382995844 0.32264861465 0.32942172885 0.32730981708 0.32203069329 0.32180371881
          0.31823688745 0.33390957117 0.31714618206 0.31532481313 0.31425768137 0.33140864968
          0.24647325277 0.24878385663 0.24817858636 0.24845871329 0.24762888253 0.24809348583
          0.24766418338 0.24934443831 0.24602469802 0.24883927405 0.24903853238 0.25065162778
          0.24720673263 0.24964928627 0.24959436059 0.25068068504 0.13028840721 0.12890028954
          0.12743005157 0.13297069073 0.13550959527 0.12776984274 0.12180940062 0.12629063427
          0.1244956851 0.12997162342 0.13344039023 0.12268836051 0.13127447665 0.13835327327
          0.13974899054 0.12542662024 -0.019433328882 -0.027199242264 -0.030263425782 -0.016050910577
          -0.0087199965492 -0.027978280559 -0.041767679155 -0.034031625837 -0.032870605588 -0.024218566716
          -0.015565247275 -0.043295308948 -0.018446443602 -0.0063466536812 -0.0026628598571 -0.038533378392
          -0.19748707116 -0.20995782316 -0.2141264528 -0.19404233992 -0.18314340711 -0.21083846688
          -0.2294998765 -0.21971896291 -0.21624776721 -0.20558664203 -0.19407838583 -0.23334246874
          -0.19771710038 -0.18217779696 -0.17663699389 -0.22750101984 -0.39918017387 -0.41234317422
          -0.41717368364 -0.39623486996 -0.38430714607 -0.41281574965 -0.43248388171 -0.42277678847
          -0.41816574335 -0.40784078836 -0.39608561993 -0.43756866455 -0.39954692125 -0.38426989317
          -0.37850606441 -0.43155959249 -0.61077022552 -0.62518209219 -0.63001817465 -0.60801583529
          -0.59524017572 -0.62553584576 -0.64547926188 -0.6359295249 -0.63068932295 -0.62062454224
          -0.60799604654 -0.65069997311 -0.61115801334 -0.5953720212 -0.58932870626 -0.64488738775
          -0.50914084911 -0.50311589241 -0.50259977579 -0.50863939524 -0.51374167204 -0.50392770767
          -0.49807989597 -0.50005972385 -0.50237810612 -0.50490677357 -0.50887268782 -0.49546402693
          -0.50751203299 -0.51230865717 -0.51501846313 -0.4962041676 -0.4989734292 -0.49511870742
          -0.50502467155 -0.49220564961 -0.5013551116 -0.51087677479 -0.51068282127 -0.34063521028
          -0.33977285028 -0.33797770739 -0.33725449443 -0.34067451954 -0.3419200778 -0.34258568287
          -0.34119215608 -0.34530475736 -0.34747567773 -0.34978923202 -0.3512789309 -0.34524846077
          -0.1901435405 -0.18936471641 -0.19078993797 -0.19106569886 -0.19147773087 -0.19386596978
          -0.19234733284 -0.19066755474 -0.19303053617 -0.19131292403 -0.19698150456 -0.19426196814
          -0.19696122408 -0.0630165115 -0.062156803906 -0.063461944461 -0.065110199153 -0.063886865973
          -0.06760019809 -0.064801074564 -0.064936459064 -0.065526336432 -0.063616640866 -0.068509362638
          -0.06608171761 -0.070057578385 0.0068104662932 0.0079157715663 0.0074466927908 0.0054636062123
          0.0069296606816 0.0031455545686 0.0065763234161 0.0058152223937 0.006298023276 0.0074180522934
          0.0041681700386 0.0062274732627 0.001951509621 0.014202051796 0.016199911013 0.018592743203
          0.018236773089 0.017127931118 0.014212437905 0.017223104835 0.016653483734 0.017402885482
          0.016900330782 0.018349157646 0.018135311082 0.015839461237 -1.0912698523e-10 -2.3594386861e-11
          7.4786406234e-11 3.2135051998e-12 3.6181318358e-11 1.2877358034e-11 -2.1593380296e-12 -6.3556310822e-13
          4.7894532714e-14 0 0 0 -3.9725231974e-14
        </DataArray>
        <DataArray type="Float32" Name="uy" format="ascii" RangeMin="-0.54754495621" RangeMax="0.43310427666">
          0.038825329393 0.048080049455 0.05316054076 0.028148809448 0.026515139267 0.038393396884
          0.036418363452 0.036943547428 0.043140139431 0.034864351153 0.026851771399 0.034533467144
          0.026670172811 0.028424166143 0.048135511577 0.038024071604 0.03194404766 0.029190214351
          0.054688125849 0.0384423621 0.041078019887 0.053390562534 0.040006559342 0.040069740266
          0.04072791338 0.057087354362 0.025889024138 -0.14317722619 -0.16406747699 -0.14118285477
          -0.034865275025 -0.048990640789 -0.031644862145 -0.17295384407 -0.056012012064 -0.15981510282
          -0.048517167568 -0.20921705663 -0.2164863497 -0.18672797084 -0.080391928554 -0.087582938373
          -0.065677829087 -0.23275977373 -0.096461303532 -0.18637385964 -0.064842619002 -0.19916561246
          -0.073220983148 -0.18669460714 -0.066352017224 -0.2294268012 -0.091869615018 -0.21090124547
          -0.079951517284 -0.18513008952 -0.065114103258 -0.15762877464 -0.043768946081 -0.24272406101
          -0.2716691792 -0.242949754 -0.28191864491 -0.26334139705 -0.33038544655 -0.33787277341
          -0.30085861683 -0.36095201969 -0.30039685965 -0.31767642498 -0.30057579279 -0.35947728157
          -0.33439573646 -0.29751729965 -0.26456958055 -0.31259033084 -0.34993454814 -0.31373253465
          -0.36294913292 -0.33847591281 -0.42423161864 -0.4326236248 -0.38676822186 -0.46261060238
          -0.38666906953 -0.40902009606 -0.38596990705 -0.46226531267 -0.431450665 -0.38371324539
          -0.34146794677 -0.34560796618 -0.39093345404 -0.34736657143 -0.40707412362 -0.37726333737
          -0.4811207056 -0.49094760418 -0.43568521738 -0.52707928419 -0.43574035168 -0.46317213774
          -0.43454107642 -0.52723026276 -0.49064049125 -0.43265646696 -0.38074436784 -0.33733463287
          -0.39011535048 -0.33930280805 -0.40848535299 -0.37435206771 -0.49454331398 -0.50595670938
          -0.44190227985 -0.54748862982 -0.44172048569 -0.47368860245 -0.44106179476 -0.54754495621
          -0.50530791283 -0.438454777 -0.37818288803 -0.28779155016 -0.34842333198 -0.28957802057
          -0.36994075775 -0.33092904091 -0.46888265014 -0.48223045468 -0.40809610486 -0.53011608124
          -0.40795132518 -0.44518184662 -0.40715545416 -0.53049135208 -0.48226392269 -0.40517562628
          -0.33474838734 -0.19237695634 -0.26329934597 -0.19526343048 -0.28797993064 -0.24294362962
          -0.40230694413 -0.41758343577 -0.33248570561 -0.47236642241 -0.33214086294 -0.37511834502
          -0.33215165138 -0.47327020764 -0.41840466857 -0.3295532167 -0.24806821346 -0.068587221205
          -0.1490406096 -0.072082974017 -0.17698296905 -0.12639285624 -0.30507326126 -0.32328975201
          -0.22769656777 -0.38275340199 -0.22675076127 -0.27492448688 -0.22865353525 -0.38381701708
          -0.3237079978 -0.22449098527 -0.13319639862 0.056303352118 -0.031203258783 0.052749533206
          -0.061381004751 -0.0070336037315 -0.20021396875 -0.22090746462 -0.1168487668 -0.28445795178
          -0.11520010978 -0.16737534106 -0.11861192435 -0.28530591726 -0.22061423957 -0.11354937404
          -0.014537709765 0.15900824964 0.065447449684 0.15537922084 0.032608862966 0.090218611062
          -0.11407545209 -0.1356780082 -0.025766259059 -0.20272272825 -0.024385027587 -0.079997390509
          -0.027475019917 -0.20420491695 -0.13654373586 -0.023530608043 0.083338908851 0.23752392828
          0.13712581992 0.2334574908 0.10150446743 0.16391915083 -0.05630600825 -0.078792877495
          0.039297252893 -0.1519651562 0.040361821651 -0.019863961264 0.037873096764 -0.15435394645
          -0.081409543753 0.040871456265 0.1567606926 0.28863480687 0.18475016952 0.28421646357
          0.1480666101 0.21283893287 -0.015236966312 -0.037629581988 0.083702459931 -0.1139299348
          0.084785215557 0.022429727018 0.082847610116 -0.11721041054 -0.041880622506 0.085272014141
          0.20477084816 0.31310898066 0.20926986635 0.30850368738 0.17271962762 0.23697005212
          0.010548038408 -0.011297101155 0.10944521427 -0.087955750525 0.10966777802 0.047510802746
          0.10814329237 -0.091593407094 -0.01690480113 0.10951361805 0.22928127646 0.3212120533
          0.21886770427 0.31710481644 0.18262955546 0.24626781046 0.021080711856 -0.00098451168742
          0.11937485635 -0.077116556466 0.12020727992 0.058206621557 0.11828795075 -0.080295592546
          -0.0054877442308 0.12046579272 0.23892439902 0.31680122018 0.21265518665 0.31287744641
          0.17557416856 0.24064940214 0.0098953256384 -0.012730987743 0.11089161783 -0.090509444475
          0.11136933416 0.04801369831 0.11000490934 -0.093314707279 -0.016610668972 0.11204709113
          0.23343847692 0.30811548233 0.20066936314 0.30521863699 0.16153107584 0.22877529263
          -0.010475372896 -0.034292459488 0.0950031057 -0.11575017869 0.095276206732 0.029576933011
          0.094539046288 -0.11756362021 -0.036719344556 0.096472546458 0.22359512746 0.30418816209
          0.19575609267 0.30353280902 0.15488421917 0.22258540988 -0.020609984174 -0.045924961567
          0.087715215981 -0.12886337936 0.087562426925 0.020942086354 0.087960243225 -0.12893673778
          -0.045562148094 0.088766030967 0.22098001838 0.31117999554 0.20304918289 0.3112102747
          0.16191019118 0.22946226597 -0.01389184501 -0.039785776287 0.094286575913 -0.12227077037
          0.09445309639 0.027855075896 0.094325050712 -0.12186587602 -0.038709525019 0.09558223933
          0.22836178541 0.32734826207 0.21897953749 0.32716983557 0.17796598375 0.24506747723
          0.0024127054494 -0.02339309454 0.110481821 -0.10608296841 0.11096031964 0.044263280928
          0.11059498042 -0.10599672794 -0.022741088644 0.11130235344 0.24434532225 0.05923647806
          0.041943900287 0.062328990549 0.034240651876 0.043832845986 0.0072021908127 -0.00094972335501
          0.022920193151 -0.010894580744 0.024461939931 0.015043742955 0.021755944937 -0.0063129900955
          0.0069322246127 0.024110935628 0.047216258943 0.042690970004 0.041766665876 0.04269239679
          0.04105579108 0.042734354734 0.044861603528 0.044829379767 0.073452614248 0.068934641778
          0.07292380929 0.0022244579159 -0.00067192985443 0.00073792296462 0.067550443113 -0.00088488846086
          0.069763503969 0.00045898085227 0.062435206026 0.060945313424 0.064828500152 -0.0032339496538
          -0.003356593661 -0.0026326945517 0.059770926833 -0.0031552731525 0.065484508872 -0.0021722544916
          0.062952034175 -0.0034446427599 0.063364543021 -0.0038161396515 0.058471299708 -0.0050136488862
          0.059394907206 -0.0057057659142 0.063790351152 -0.003178545041 0.068382717669 -0.0022595166229
          -0.095108918846 -0.099383600056 -0.09629072994 -0.10019902885 -0.097462430596 -0.10542390496
          -0.10565672815 -0.10279355198 -0.10799403489 -0.10253964365 -0.10495121777 -0.10303085297
          -0.10911782086 -0.10736192763 -0.10270267725 -0.099648393691 -0.19465561211 -0.20209845901
          -0.19539868832 -0.20421813428 -0.19910526276 -0.2161539942 -0.21726068854 -0.20896950364
          -0.22360612452 -0.20867325366 -0.21328417957 -0.20854397118 -0.22358702123 -0.21736979485
          -0.20768865943 -0.20043931901 -0.27382615209 -0.2842105329 -0.27426466346 -0.28749409318
          -0.28056544065 -0.30525261164 -0.30734625459 -0.29454836249 -0.31608587503 -0.29451164603
          -0.30052527785 -0.29400929809 -0.31547799706 -0.30622911453 -0.29253232479 -0.28138709068
          -0.32447260618 -0.33898955584 -0.32464429736 -0.34386596084 -0.33427974582 -0.36864674091
          -0.3717700243 -0.35362976789 -0.38326644897 -0.35361149907 -0.36210730672 -0.35334441066
          -0.38291114569 -0.37071678042 -0.35157805681 -0.33536469936 -0.35424125195 -0.37132507563
          -0.35399800539 -0.37722280622 -0.36640405655 -0.40684589744 -0.41126263142 -0.38896414638
          -0.42501485348 -0.38865986466 -0.3988943398 -0.3889695704 -0.42405921221 -0.40921962261
          -0.38684609532 -0.36683261395 -0.37403979897 -0.39138025045 -0.37334427238 -0.39802131057
          -0.38695210218 -0.42870157957 -0.43360736966 -0.40982797742 -0.44839778543 -0.40965262055
          -0.42071405053 -0.4091526866 -0.44692641497 -0.43128734827 -0.40829440951 -0.38611796498
          -0.3758970201 -0.39320984483 -0.37544792891 -0.39997941256 -0.3888027668 -0.42926719785
          -0.43309167027 -0.41053831577 -0.44818836451 -0.41124099493 -0.42189002037 -0.40947884321
          -0.44754934311 -0.43224790692 -0.40958869457 -0.38775202632 -0.34435042739 -0.36222034693
          -0.34454286098 -0.36885970831 -0.3565595448 -0.39884701371 -0.40171474218 -0.37974250317
          -0.41735488176 -0.38046243787 -0.39171350002 -0.37818369269 -0.41786462069 -0.40250846744
          -0.37864357233 -0.35681793094 -0.27705016732 -0.29405575991 -0.27661269903 -0.30066615343
          -0.28885981441 -0.33078458905 -0.33385142684 -0.31141602993 -0.34981349111 -0.31207537651
          -0.3234243989 -0.31016403437 -0.3500584662 -0.3343205452 -0.31066596508 -0.288672328
          -0.17523530126 -0.18891239166 -0.17361824214 -0.19544485211 -0.18638323247 -0.22094653547
          -0.22423025966 -0.20383290946 -0.23789787292 -0.20477968454 -0.21461862326 -0.20244064927
          -0.2368965894 -0.22353126109 -0.20411281288 -0.18315283954 -0.0438404046 -0.052658136934
          -0.041087016463 -0.057735007256 -0.052575044334 -0.074357412755 -0.078157678246 -0.063358783722
          -0.08617067337 -0.06346437335 -0.069727726281 -0.062857747078 -0.083685614169 -0.074483156204
          -0.063364028931 -0.048013672233 0.094082593918 0.090415067971 0.096625871956 0.087919697165
          0.089060172439 0.080816552043 0.077426582575 0.085162743926 0.075590565801 0.085480906069
          0.083527624607 0.084260389209 0.078761346638 0.082178376615 0.085157632828 0.092495203018
          0.21508534253 0.21559274197 0.21686394513 0.21456244588 0.21323034167 0.21464683115
          0.21231658757 0.21440576017 0.21435651183 0.21495205164 0.21536278725 0.21311475337
          0.21658590436 0.21603272855 0.21377269924 0.21586051583 0.3035146296 0.30811801553
          0.30508333445 0.30861797929 0.30451002717 0.31724280119 0.31629386544 0.31195524335
          0.32194554806 0.31225818396 0.31555488706 0.31046822667 0.32363310456 0.31898745894
          0.31050026417 0.30695557594 0.35239353776 0.36209815741 0.35370495915 0.36487111449
          0.35769250989 0.38041576743 0.38072094321 0.37051284313 0.38990584016 0.37101775408
          0.37718752027 0.36919629574 0.3918209672 0.38356566429 0.36992910504 0.35977622867
          0.36850571632 0.38195028901 0.36936923862 0.38638445735 0.37729668617 0.40770739317
          0.40955582261 0.39456954598 0.42091548443 0.39454299212 0.40295994282 0.39385539293
          0.42203250527 0.41142430902 0.39391258359 0.37902081013 0.37518844008 0.38950195909
          0.37545657158 0.39476647973 0.38595342636 0.41803330183 0.42105469108 0.40352109075
          0.43229475617 0.40389129519 0.41266348958 0.40333178639 0.43276455998 0.4214437604
          0.40355181694 0.38592654467 0.37533122301 0.38983955979 0.37560766935 0.39525824785
          0.38630875945 0.41830688715 0.42136657238 0.40393802524 0.43267419934 0.40425881743
          0.4130025804 0.40371343493 0.43310427666 0.42195880413 0.40403258801 0.38636395335
          0.098386675119 0.08988648653 0.09644844383 0.088175393641 0.093179799616 0.079983942211
          0.078099377453 0.083919815719 0.075792625546 0.084510907531 0.081377506256 0.08246614784
          0.074538975954 0.076719418168 0.083893738687 0.089481949806 0.061487168074 0.062809213996
          0.066679634154 0.056305773556 0.060153793544 0.066227309406 0.062964729965 -0.048318393528
          -0.046487744898 -0.04503044486 -0.042046234012 -0.046005707234 -0.050750873983 -0.045466352254
          -0.039790391922 -0.044818073511 -0.039553135633 -0.0481072478 -0.04298138991 -0.0510869883
          -0.11483006924 -0.11206356436 -0.10963432491 -0.10979142785 -0.11234139651 -0.11651459336
          -0.11219330877 -0.10962983221 -0.11108319461 -0.10894861817 -0.11113264412 -0.10892467201
          -0.11495668441 -0.13051623106 -0.12751562893 -0.12571367621 -0.12672795355 -0.12850415707
          -0.13147744536 -0.12843589485 -0.12808744609 -0.12742745876 -0.12663246691 -0.1250321269
          -0.12456037104 -0.12853851914 -0.093690387905 -0.09153932333 -0.089678213 -0.090005673468
          -0.09129653126 -0.092861607671 -0.090761244297 -0.091005936265 -0.090049169958 -0.090430922806
          -0.087438620627 -0.088290087879 -0.089692369103 -0.035957187414 -0.037096530199 -0.035778995603
          -0.033873036504 -0.034283380955 -0.033120054752 -0.033349938691 -0.033622421324 -0.032946646214
          -0.034619104117 -0.032390348613 -0.034153815359 -0.031700324267 -8.6828114143e-12 -1.3845359755e-11
          -3.0556679149e-12 2.6015390471e-13 -1.2544195717e-11 4.9160033683e-12 -1.3489229265e-12 -3.2008383032e-13
          -1.4371338321e-13 0 0 0 3.2916137399e-14
        </DataArray>
        <DataArray type="Float32" Name="uz" format="ascii" RangeMin="-0.060400579125" RangeMax="0.44900643826">
          0.036115814 0.032293513417 0.046720851213 0.067585781217 0.09859110415 0.091710940003
          0.087422832847 0.023308686912 0.020793410018 0.024799518287 0.052422374487 0.079663343728
          0.088465154171 0.067179337144 0.05442224443 0.057239763439 0.098721288145 0.095538020134
          0.03364450112 0.044918652624 0.080729357898 0.024424079806 0.076743654907 0.093143999577
          0.079804353416 0.060339339077 0.059650152922 -0.039006631821 0.039487190545 0.0020861581434
          -0.0097474120557 0.049141209573 0.029921010137 0.019874440506 0.025056863204 -0.037035018206
          -0.018696224317 0.13093791902 0.18645949662 0.10819297284 0.10618574172 0.15434607863
          0.10031608492 0.18877480924 0.14288508892 0.074931919575 0.068510688841 0.076387144625
          0.060916632414 0.14195013046 0.13269293308 0.14737407863 0.10445199907 0.07872647047
          0.052781827748 0.0084423506632 0.0056705418974 0.071615971625 0.084506765008 -0.044213775545
          0.036925431341 -0.0094619002193 0.026143692434 -0.031175065786 0.14478120208 0.19491995871
          0.10997415334 0.20900830626 0.082313247025 0.093081116676 0.13831210136 0.17448218167
          0.10476844013 0.02597627975 0.06033487618 -0.029426716268 0.042005710304 -0.0065326648764
          0.04176074639 -0.0072827460244 0.14896702766 0.18685401976 0.10845063627 0.20908807218
          0.089792400599 0.10780052841 0.12738476694 0.18562732637 0.12598899007 0.052221830934
          0.053309749812 -0.0042421100661 0.051735311747 0.0052095586434 0.061471916735 0.024894176051
          0.14870220423 0.170907408 0.10563597828 0.20017153025 0.09768883884 0.12142496556
          0.11361369491 0.1904193908 0.14564932883 0.082243941724 0.05015733093 0.023918649182
          0.062793850899 0.019097208977 0.083375632763 0.060268279165 0.14765033126 0.15279312432
          0.10279080272 0.18893541396 0.10647054017 0.13594524562 0.099002085626 0.19379544258
          0.16541904211 0.11447850615 0.047960590571 0.051260303706 0.073845610023 0.032402656972
          0.10492253304 0.094645395875 0.14671699703 0.13492329419 0.099649943411 0.17839850485
          0.1151785329 0.14996084571 0.084091924131 0.19752986729 0.18503005803 0.14565233886
          0.045052129775 0.079886779189 0.086020328104 0.048462308943 0.12501062453 0.12733452022
          0.14397028089 0.11748527735 0.097264386714 0.16592429578 0.12268811464 0.16112658381
          0.07145280391 0.19764019549 0.20054382086 0.17332994938 0.045423220843 0.11559082568
          0.10533756018 0.078118480742 0.14560478926 0.15949340165 0.14085491002 0.10509260744
          0.10213018954 0.1492972672 0.13223272562 0.16762153804 0.071314498782 0.18688085675
          0.20386324823 0.1930333823 0.061102293432 0.15190221369 0.13028098643 0.11640044302
          0.16422016919 0.18456470966 0.14124833047 0.10510938615 0.11626341939 0.13746741414
          0.14448495209 0.1706559509 0.087252222002 0.17237190902 0.19660492241 0.20138777792
          0.091608501971 0.18267682195 0.15589509904 0.15523700416 0.17812970281 0.1995934993
          0.14336928725 0.11366568506 0.13459043205 0.13077405095 0.15656244755 0.16995538771
          0.11263931543 0.15721257031 0.18357940018 0.19984950125 0.12834955752 0.21518275142
          0.18142572045 0.19600589573 0.19050054252 0.2146486789 0.14053989947 0.1165092364
          0.15046800673 0.11636715382 0.16564488411 0.16515141726 0.13512428105 0.13477817178