<VTKFile type="UnstructuredGrid" version="1.0" byte_order="LittleEndian" header_type="UInt64">
  <UnstructuredGrid>
    <Piece NumberOfPoints="791" NumberOfCells="973">
      <PointData>
        <DataArray type="Float32" Name="ux" format="ascii" RangeMin="-1.2955836058" RangeMax="1.7180328369">
          -0.50588214397 -0.4857622087 -0.51156407595 -0.49986314774 -0.49151614308 -0.50472271442
          -0.4630997777 -0.47868913412 -0.44578415155 -0.45484495163 -0.46741819382 -0.4101896584
          -0.45909905434 -0.44130817056 -0.54482907057 -0.52831602097 -0.54857593775 -0.52659833431
          -0.45150265098 -0.43286308646 -0.43175938725 -0.42011895776 -0.38790547848 -0.56141918898
          -0.55256789923 -0.54357421398 -0.48282814026 -0.37515336275 -0.41251525283 -0.42321893573
          -0.5061314106 -0.52413624525 -0.53645795584 -0.36504307389 -0.49943238497 -0.33263406157
          -0.4822639823 -0.40672084689 -0.46763598919 -0.43958967924 -0.51397919655 -0.549877882
          -0.53779864311 -0.41509380937 -0.51159602404 -0.39870736003 -0.51065939665 -0.35916951299
          -0.49205836654 -0.48378318548 -0.57152479887 -0.35813829303 -0.48737189174 -0.31683591008
          -0.47223851085 -0.3066843152 -0.47243082523 -0.46370646358 -0.5599167943 -0.14856922626
          -0.17762666941 -0.18545041978 -0.13896587491 -0.11473495513 -0.17761737108 -0.22410804033
          -0.20053982735 -0.18972718716 -0.16619032621 -0.13505065441 -0.2295781076 -0.13982892036
          -0.10297207534 -0.094436518848 -0.21392340958 0.051578681916 0.045323822647 0.037900146097
          0.06739924103 0.072617940605 0.054296940565 0.021617459133 0.039003647864 0.046858135611
          0.056790325791 0.074410155416 0.022151991725 0.074314273894 0.094135813415 0.091983966529
          0.029568370432 0.13159924746 0.14434501529 0.14965927601 0.13237662613 0.1209063977
          0.13548067212 0.14782322943 0.14747127891 0.13345967233 0.137660712 0.1327842325
          0.15835383534 0.13083665073 0.13205225766 0.1276294291 0.15952348709 0.23037876189
          0.2464183569 0.25167536736 0.22777055204 0.2118011713 0.24187833071 0.26972183585
          0.25524964929 0.2525549531 0.23998844624 0.22722369432 0.27152383327 0.23731097579
          0.22067940235 0.20912279189 0.26361650229 0.33865523338 0.36274597049 0.36623457074
          0.33915621042 0.31972432137 0.37739473581 0.41064229608 0.38923272491 0.39180830121
          0.36258247495 0.34647813439 0.41442576051 0.35629743338 0.3252388835 0.31287592649
          0.39765781164 0.51377022266 0.51656681299 0.50603097677 0.51825511456 0.52211350203
          0.52491366863 0.53333348036 0.52228462696 0.527371943 0.51972985268 0.51783293486
          0.52490890026 0.51464277506 0.51151561737 0.51927822828 0.5123257637 0.6089913249
          0.5554240346 0.52523142099 0.62714642286 0.68201732635 0.56298953295 0.50069892406
          0.52450573444 0.54384821653 0.57643842697 0.62586122751 0.47702491283 0.60900360346
          0.66922581196 0.70448291302 0.4807138443 0.53784286976 0.42264175415 0.37697869539
          0.56817382574 0.67750763893 0.42549464107 0.27739372849 0.34241575003 0.39067152143
          0.46050086617 0.56685954332 0.22648638487 0.53715395927 0.66835707426 0.72751140594
          0.25774475932 0.27543854713 0.11382067204 0.055652216077 0.31207209826 0.45491880178
          0.11996865273 -0.10260266811 -0.0011013196781 0.068448118865 0.17330050468 0.31318336725
          -0.17456790805 0.28085109591 0.45310872793 0.52228832245 -0.11513090134 0.0024573740084
          -0.22552925348 -0.30133765936 0.050681818277 0.24800486863 -0.2262109071 -0.55342805386
          -0.39960974455 -0.30375742912 -0.14942090213 0.053037535399 -0.64399576187 0.0086552863941
          0.25762927532 0.34688895941 -0.54666626453 -0.20809714496 -0.48834818602 -0.57726550102
          -0.1480243057 0.094874605536 -0.49346521497 -0.9114317894 -0.70827126503 -0.59649825096
          -0.39578032494 -0.14600361884 -1.0268989801 -0.20282678306 0.10908425599 0.21939489245
          -0.8923150301 -0.38903772831 -0.69197124243 -0.7887519598 -0.32542866468 -0.062725283206
          -0.68342489004 -1.1268664598 -0.92011255026 -0.78172498941 -0.58773863316 -0.31504702568
          -1.2545903921 -0.36770293117 -0.045411918312 0.06753911078 -1.1203169823 -0.45305681229
          -0.75159853697 -0.84326720238 -0.40079408884 -0.14662502706 -0.75140190125 -1.1677290201
          -0.97349900007 -0.8450679183 -0.65482777357 -0.39933848381 -1.2955836058 -0.45379787683
          -0.14282888174 -0.027246478945 -1.1678888798 -0.3102722466 -0.6119415164 -0.70695394278
          -0.25670191646 0.007514109835 -0.60784810781 -1.0201473236 -0.83165842295 -0.69647294283
          -0.51213473082 -0.26032924652 -1.1564749479 -0.31674647331 -0.0066318036988 0.11856231838
          -1.035326004 -0.022263174877 -0.34965318441 -0.46039354801 0.042225912213 0.32654350996
          -0.34343796968 -0.79675298929 -0.59057235718 -0.44606536627 -0.23956683278 0.042154703289
          -0.94033253193 -0.020423598588 0.32278618217 0.45092895627 -0.81490552425 0.3530973196
          -0.00050838210154 -0.12349177897 0.43116176128 0.7371365428 0.010396864265 -0.49440386891
          -0.2648216486 -0.1043227762 0.12500223517 0.43303847313 -0.65774095058 0.36890593171
          0.74255901575 0.88259422779 -0.51049637794 0.75544196367 0.38492292166 0.25821226835
          0.82993239164 1.1529574394 0.38268113136 -0.14214904606 0.10559532046 0.25802287459
          0.50992786884 0.82787942886 -0.30067259073 0.75206065178 1.1495238543 1.3057671785
          -0.14683943987 1.1628298759 0.78189313412 0.65183901787 1.2412569523 1.5688694715
          0.78375196457 0.24705454707 0.4973192215 0.65705084801 0.90762215853 1.2393380404
          0.090591914952 1.1625988483 1.5624632835 1.7180328369 0.24241669476 -0.50915765762
          -0.46539527178 -0.44549545646 -0.51816511154 -0.55462563038 -0.47266286612 -0.4212039113
          -0.43982967734 -0.46353533864 -0.4817173481 -0.51489448547 -0.3937138021 -0.50758457184
          -0.54754453897 -0.56578606367 -0.39952036738 -0.45498362184 -0.39751833677 -0.44098421931
          -0.47209000587 -0.5072414279 -0.49805799127 -0.54689157009 -0.16515189409 -0.17268849909
          -0.1783580333 0.19035033882 0.16937784851 0.16328534484 -0.1605039686 0.19731801748
          -0.1543521136 0.22351849079 -0.16277611256 -0.17782841623 -0.17463871837 0.17430487275
          0.139250651 0.15385651588 -0.16264055669 0.1691031605 -0.16555534303 0.17973707616
          -0.15567854047 0.19866150618 -0.1890360713 0.12859021127 -0.15167120099 0.19754064083
          -0.1497220844 0.21910554171 -0.14848856628 0.23245774209 -0.19034673274 0.13847257197
          0.51196402311 0.47741872072 0.45812913775 0.52930617332 0.56663000584 0.48582753539
          0.43198531866 0.4546700716 0.47138485312 0.49676290154 0.53363353014 0.41195777059
          0.52551943064 0.5698786974 0.58796930313 0.42079442739 0.709002316 0.67937344313
          0.66161096096 0.72792422771 0.76102077961 0.68155413866 0.6232727766 0.65242189169
          0.66236960888 0.69687467813 0.73452621698 0.61132419109 0.72165197134 0.77412778139
          0.78621703386 0.62201625109 0.74017494917 0.70313090086 0.68463003635 0.75730115175
          0.79669255018 0.71092051268 0.65040057898 0.67975968122 0.69733673334 0.72366458178
          0.76360690594 0.63609313965 0.75582587719 0.80292016268 0.82487529516 0.65049868822
          0.63482320309 0.6030074954 0.59175211191 0.64849483967 0.68280798197 0.60723525286
          0.56063872576 0.58423769474 0.59271788597 0.61754453182 0.6509629488 0.5502218008
          0.64100700617 0.68816035986 0.70893597603 0.56024891138 0.42896345258 0.40214473009
          0.38937279582 0.4419862628 0.47005304694 0.4096378386 0.36270752549 0.38576951623
          0.39847230911 0.4178083241 0.44678431749 0.35632181168 0.43940967321 0.47458103299
          0.48760351539 0.36576402187 0.11785140634 0.1254952997 0.13095055521 0.11810869724
          0.10751395673 0.12712219357 0.13480335474 0.13402251899 0.12700463831 0.12484350055
          0.12116141617 0.14417536557 0.12269449234 0.11231574416 0.105255723 0.14129143953
          -0.18333281577 -0.16041912138 -0.15189105272 -0.1866838932 -0.20948153734 -0.16393013299
          -0.13924306631 -0.1507075727 -0.16011863947 -0.17114388943 -0.18795950711 -0.1311018914
          -0.17992027104 -0.20145189762 -0.21812328696 -0.13430912793 -0.43778061867 -0.40541347861
          -0.39534783363 -0.44294333458 -0.47397607565 -0.40475600958 -0.37154504657 -0.38792321086
          -0.38871869445 -0.41267579794 -0.4367942214 -0.37101402879 -0.42000728846 -0.45782309771
          -0.483058393 -0.37369719148 -0.58436322212 -0.53802800179 -0.52592104673 -0.59312897921
          -0.63422316313 -0.527746737 -0.46226480603 -0.50412601233 -0.50348210335 -0.55195188522
          -0.58643573523 -0.45674809813 -0.56046146154 -0.61663144827 -0.64919644594 -0.47693863511
          -0.50677150488 -0.45507138968 -0.44023367763 -0.51991432905 -0.56987720728 -0.44622391462
          -0.36226648092 -0.41292858124 -0.41470471025 -0.46811321378 -0.51843339205 -0.35638347268
          -0.49978983402 -0.57302689552 -0.59952247143 -0.38626506925 -0.24736072123 -0.21626667678
          -0.21493028104 -0.25225606561 -0.28054985404 -0.21592864394 -0.17363940179 -0.19806310534
          -0.20602813363 -0.22592642903 -0.25344660878 -0.17020891607 -0.24976743758 -0.28517687321
          -0.30073201656 -0.18371598423 0.043791301548 0.012590736151 -0.0026465945411 0.055277816951
          0.084205776453 0.016448076814 -0.025369698182 -0.0078374072909 0.003797482932 0.027618000284
          0.056444637477 -0.038429483771 0.052075821906 0.08643515408 0.099703244865 -0.031411640346
          0.24929465353 0.16699555516 0.13551226258 0.27308067679 0.34544283152 0.16305652261
          0.039839934558 0.10229985416 0.13090236485 0.19587951899 0.27118310332 0.0095335990191
          0.24480462074 0.34253239632 0.38069668412 0.042946409434 0.3035261333 0.15927191079
          0.10827469081 0.33946284652 0.46834203601 0.15743115544 -0.049050610512 0.051311869174
          0.1022484675 0.2084594667 0.33832535148 -0.10549028218 0.30355283618 0.46863535047
          0.53173691034 -0.044002663344 0.28673061728 0.085474818945 0.014230178669 0.34028446674
          0.51764839888 0.095884867013 -0.20751258731 -0.065772049129 0.023650886491 0.16093795002
          0.34912201762 -0.29340448976 0.31246191263 0.53788131475 0.61874222755 -0.20394983888
          0.22262762487 -0.03206557408 -0.11907726526 0.28258484602 0.50880497694 -0.021971430629
          -0.390150249 -0.21827459335 -0.10282132775 0.063429802656 0.29251047969 -0.49967429042
          0.24901127815 0.52687466145 0.62538063526 -0.39022916555 0.14969983697 -0.10890354961
          -0.19759568572 0.20726856589 0.43563231826 -0.10512408614 -0.48675519228 -0.30474022031
          -0.1920234859 -0.01679168269 0.21715202928 -0.5949062705 0.16676004231 0.4506213963
          0.55199819803 -0.48235931993 0.088953100145 -0.16834267974 -0.25106245279 0.14071419835
          0.36229601502 -0.16727571189 -0.5376662612 -0.36154744029 -0.25385147333 -0.081184580922
          0.14331483841 -0.64190644026 0.095145821571 0.36983248591 0.47330090404 -0.53394633532
          -0.51888394356 -0.47114849091 -0.50186085701 -0.47084739804 -0.50459003448 -0.39417642355
          -0.36831408739 -0.42364689708 -0.35137727857 -0.43905687332 -0.42500177026 -0.40571311116
          -0.36878189445 -0.4161914587 -0.46742498875 -0.45693156123 -0.4515299499 -0.40612074733
          -0.42412215471 -0.47984576225 -0.49488839507 -0.46831023693 -0.51797574759 -0.41769763827
          -0.43144109845 -0.40810900927 -0.35981699824 -0.37299507856 -0.36504817009 -0.33743676543
          -0.31078717113 -0.30800738931 -0.28055381775 -0.26957595348 -0.26726597548 -0.30422231555
          -0.13088771701 -0.14651559293 -0.12063299119 -0.051975112408 -0.066857650876 -0.060706671327
          -0.011497042142 0.027852229774 0.041408304125 0.088930502534 0.10226584226 0.11912288517
          0.032487031072 0.11053463817 0.083871327341 0.11451908946 0.18390455842 0.18140332401
          0.18476095796 0.24213285744 0.28023061156 0.30118522048 0.36283919215 0.37052306533
          0.39589643478 0.28447404504 0.17000858486 0.13084048033 0.15467903018 0.24208444357
          0.24069473147 0.25360429287 0.31034052372 0.35360696912 0.3721305728 0.4392605722
          0.42785951495 0.4665286541 0.34894138575 0.036433611065 -0.004847493954 0.017854770645
          0.09962490201 0.089978128672 0.11055231094 0.14844231308 0.19648163021 0.20048549771
          0.26059785485 0.243007496 0.27522647381 0.18716496229 -1.6580946338e-10 1.836554131e-09
          -9.3929464207e-10 3.0282595875e-11 1.1845717462e-10 7.3003290912e-11 -2.8170530145e-11 8.9554091139e-13
          8.019688429e-13 0 0 0 -1.2930808767e-12
        </DataArray>
        <DataArray type="Float32" Name="uy" format="ascii" RangeMin="-1.0720646381" RangeMax="0.8830794096">
          0.40218931437 0.34639495611 0.32820233703 0.36925968528 0.31950721145 0.21859517694
          0.24763205647 0.39658179879 0.35669595003 0.37107053399 0.37194612622 0.26133093238
          0.32219570875 0.32131257653 0.36241972446 0.37786644697 0.25262415409 0.3195848763
          0.28766062856 0.31735295057 0.17869284749 0.28117024899 0.17387478054 0.1711679846
          0.31521546841 0.28801447153 0.37869462371 -0.62783843279 -0.66767811775 -0.63004994392
          -0.45709502697 -0.48166495562 -0.45133319497 -0.68164724112 -0.49812462926 -0.64960688353
          -0.47907063365 -0.75892567635 -0.77063179016 -0.71119767427 -0.54177415371 -0.54942750931
          -0.51318752766 -0.80991631746 -0.56716734171 -0.71190518141 -0.51431035995 -0.73725253344
          -0.53192436695 -0.7066655755 -0.50831747055 -0.801615417 -0.55504357815 -0.76264405251
          -0.53512573242 -0.70135951042 -0.50873214006 -0.6556763649 -0.46948805451 -0.72140425444
          -0.75170654058 -0.72763359547 -0.75675970316 -0.73478269577 -0.80370116234 -0.80525952578
          -0.77497452497 -0.83707588911 -0.77478569746 -0.79102987051 -0.76689171791 -0.83753317595
          -0.80534774065 -0.76282149553 -0.74120265245 -0.67478358746 -0.68541580439 -0.67510038614
          -0.69345587492 -0.67791545391 -0.71716272831 -0.71096932888 -0.69220584631 -0.73721933365
          -0.70061808825 -0.71137875319 -0.68128967285 -0.74086982012 -0.72087395191 -0.69578588009
          -0.67539358139 -0.39544478059 -0.38607481122 -0.39773440361 -0.37681463361 -0.38007757068
          -0.37221056223 -0.37078160048 -0.37815728784 -0.37051689625 -0.37679228187 -0.37092980742
          -0.37484315038 -0.37464737892 -0.36761698127 -0.36699199677 -0.38667139411 0.0562139377
          0.068677775562 0.052019193769 0.083633191884 0.072453796864 0.10007780045 0.092459887266
          0.078094810247 0.1122213006 0.086529113352 0.10346473008 0.06776894629 0.11966496706
          0.11491060257 0.096435330808 0.055808309466 0.41678369045 0.44210493565 0.41383048892
          0.45026484132 0.43250820041 0.49123886228 0.48768731952 0.46558120847 0.51190149784
          0.46824592352 0.48248007894 0.46002885699 0.51526373625 0.49709045887 0.45976299047
          0.42877799273 0.66536104679 0.65934681892 0.65886330605 0.65862703323 0.65873146057
          0.66148871183 0.65765970945 0.65786880255 0.66955441236 0.65722203255 0.65792196989
          0.64769786596 0.66570484638 0.65532171726 0.65163129568 0.65058898926 0.81783235073
          0.75195938349 0.80386674404 0.73317587376 0.77144396305 0.65139001608 0.64068466425
          0.69473230839 0.61022996902 0.70069080591 0.66671919823 0.68499165773 0.59898042679
          0.62384647131 0.69056379795 0.74614095688 0.79472529888 0.658210814 0.77799665928
          0.62502229214 0.70666408539 0.42211943865 0.39151409268 0.53076243401 0.30921903253
          0.54171782732 0.47028845549 0.52245169878 0.30369925499 0.38782721758 0.54775166512
          0.66794461012 0.5180824399 0.34700456262 0.51546990871 0.28547152877 0.3890798986
          0.019295178354 -0.020231347531 0.18010282516 -0.14011053741 0.17890506983 0.083064101636
          0.17841462791 -0.13846299052 -0.0156045435 0.18493422866 0.38408887386 0.25377976894
          0.020076222718 0.2541128695 -0.068256430328 0.08009467274 -0.4465419054 -0.50010335445
          -0.21115547419 -0.68436294794 -0.21161712706 -0.3550645709 -0.20672684908 -0.68364143372
          -0.49761706591 -0.20411410928 0.083057783544 0.13747240603 -0.15136408806 0.14366856217
          -0.26884970069 -0.081387527287 -0.75590538979 -0.82585418224 -0.45257049799 -1.0595970154
          -0.4513964951 -0.63608843088 -0.44033744931 -1.0522010326 -0.81293851137 -0.44193553925
          -0.068380460143 0.18672667444 -0.1187819913 0.19633030891 -0.24466979504 -0.052567049861
          -0.75211316347 -0.82345527411 -0.42843553424 -1.0720646381 -0.43655234575 -0.63014954329
          -0.42147001624 -1.065754056 -0.82289785147 -0.43469369411 -0.03216779232 0.39438468218
          0.10260318965 0.40320700407 -0.013294112869 0.16660624743 -0.50287407637 -0.58054929972
          -0.20063076913 -0.80928587914 -0.19691315293 -0.38052928448 -0.1984769702 -0.79943031073
          -0.56269109249 -0.19290025532 0.17953160405 0.64879077673 0.34079089761 0.6567671299
          0.22158059478 0.4072444737 -0.27773156762 -0.35635063052 0.028858348727 -0.58123666048
          0.029778929427 -0.16123558581 0.026663854718 -0.57267135382 -0.34700751305 0.027716739103
          0.41872215271 0.79190081358 0.46030253172 0.79305750132 0.33278548717 0.53512459993
          -0.19767047465 -0.2863728106 0.12398615479 -0.52676314116 0.1274857372 -0.069278776646
          0.11742965132 -0.51762032509 -0.26848623157 0.13127057254 0.530569911 0.84119695425
          0.47526925802 0.84325259924 0.33661833405 0.55933582783 -0.25627651811 -0.35150277615
          0.10814924538 -0.62361598015 0.11060526967 -0.11334175617 0.10064601153 -0.61377346516
          -0.33258956671 0.11091313511 0.5590518713 0.79769527912 0.41211989522 0.80036950111
          0.26137334108 0.4974539876 -0.36139172316 -0.45697873831 0.022176550701 -0.74030798674
          0.021864479408 -0.21294617653 0.015628343448 -0.73755657673 -0.44616228342 0.023053409532
          0.50314950943 0.6656716466 0.28225412965 0.66840273142 0.13318248093 0.36839592457
          -0.47645530105 -0.56620079279 -0.097992792726 -0.85900723934 -0.10023133457 -0.33039876819
          -0.095690496266 -0.85586857796 -0.56703418493 -0.10128158331 0.37270879745 -0.16919831932
          -0.17809122801 -0.16767768562 -0.18462395668 -0.17531184852 -0.21684665978 -0.21797326207
          -0.19221870601 -0.24183763564 -0.19578507543 -0.20840755105 -0.19094271958 -0.24392747879
          -0.22055758536 -0.19524377584 -0.17348840833 0.10831040144 0.092548444867 0.042705856264
          0.17886509001 0.13366949558 0.037772584707 0.090897507966 0.050184097141 0.059431392699
          0.043140407652 -0.13518545032 -0.10601842403 -0.13310880959 0.069985501468 -0.092151269317
          0.064603663981 -0.10841847211 0.084671698511 0.089940980077 0.071375414729 -0.045840479434
          -0.038370288908 -0.076561719179 0.094494722784 -0.016623906791 0.073990032077 -0.074392087758
          0.0808204934 -0.049616891891 0.074280910194 -0.075779095292 0.092149280012 -0.016429584473
          0.088453501463 -0.025837685913 0.079373903573 -0.058797314763 0.054606966674 -0.11081176251
          -0.19866752625 -0.15284055471 -0.18895888329 -0.14089153707 -0.16814093292 -0.068671733141
          -0.058143623173 -0.10968477279 -0.028446475044 -0.11223436147 -0.087350144982 -0.10420975834
          -0.025884991512 -0.053628262132 -0.10987930745 -0.1525105983 -0.13490919769 -0.089274093509
          -0.12548904121 -0.07873455435 -0.10940676928 -0.0031149913557 0.010659709573 -0.044095631689
          0.041753031313 -0.047344990075 -0.023271718994 -0.037210777402 0.045274853706 0.0071277944371
          -0.053161937743 -0.089904494584 -0.077190928161 -0.027589963749 -0.068423494697 -0.0085881212726
          -0.043852429837 0.067516520619 0.071364030242 0.017145905644 0.11134336144 0.019092718139
          0.053471289575 0.011561943218 0.11933960021 0.087842047215 0.023188697174 -0.036184683442
          -0.032229509205 0.010209606029 -0.024086456746 0.023428400978 -0.0081098396331 0.092419482768
          0.097231283784 0.053206406534 0.12875588238 0.050239212811 0.08123575151 0.050077479333
          0.13923209906 0.11355526745 0.05519932881 0.0083197029307 -0.0087231472135 0.021314298734
          -0.0035843537189 0.037762351334 0.015461169183 0.085950002074 0.088811889291 0.048372387886
          0.11738836765 0.053842745721 0.078535489738 0.04413119331 0.12510076165 0.10356272757
          0.062647238374 0.015605620109 0.11938209087 0.10529258102 0.11646860838 0.10405270755
          0.1095680669 0.079905338585 0.075812496245 0.087668672204 0.071690127254 0.093216352165
          0.086256489158 0.090047605336 0.072409801185 0.078171312809 0.094921126962 0.1079171896
          0.15238130093 0.12737427652 0.15070028603 0.11470532417 0.12693949044 0.085177093744
          0.085206545889 0.10788495094 0.068755798042 0.10382941365 0.084738440812 0.10624843091
          0.062957584858 0.066690176725 0.093390107155 0.13248665631 0.087802633643 0.056783843786
          0.079875417054 0.042848739773 0.064677841961 0.013780100271 0.020416617393 0.037414301187
          -0.0021860762499 0.031750738621 0.0099397199228 0.043516121805 -0.019104480743 -0.012899331748
          0.020776186138 0.061983980238 -0.011392259039 -0.05589279905 -0.01261023432 -0.078148178756
          -0.04736636579 -0.14117129147 -0.13870994747 -0.095831140876 -0.18145792186 -0.10329987854
          -0.13661779463 -0.08738321811 -0.19566226006 -0.16986057162 -0.11106953025 -0.043897524476
          -0.084973305464 -0.13955886662 -0.087768733501 -0.16758924723 -0.12850487232 -0.26124063134
          -0.25854793191 -0.19283379614 -0.32062917948 -0.20284476876 -0.2483908385 -0.18488879502
          -0.33660402894 -0.29622018337 -0.21454712749 -0.12442141771 -0.098305016756 -0.13032199442
          -0.098938971758 -0.14701907337 -0.1214587912 -0.19992163777 -0.19397832453 -0.15995813906
          -0.22922100127 -0.16589564085 -0.19470085204 -0.15406171978 -0.24084070325 -0.22250112891
          -0.17304842174 -0.11926502734 -0.12625803053 -0.086658209562 -0.12166684121 -0.072575613856
          -0.099199511111 -0.027552608401 -0.026314372197 -0.053618893027 -0.0059636137448 -0.054690603167
          -0.036512374878 -0.054459519684 0.00050535832997 -0.02059493959 -0.055367801338 -0.09272274375
          -0.14132489264 -0.047647438943 -0.13730102777 -0.019664593041 -0.076415196061 0.12229367346
          0.14114683867 0.040562737733 0.20565783978 0.038403708488 0.087029874325 0.039644632488
          0.20762547851 0.14311893284 0.032688081264 -0.064549706876 -0.19749645889 -0.04214175418
          -0.19005763531 0.0098086073995 -0.087159059942 0.25762820244 0.29072156549 0.10826283693
          0.40785649419 0.10507964343 0.1980291456 0.1070631519 0.4115446806 0.29577550292
          0.10431247205 -0.070985227823 -0.23766060174 -0.022643715143 -0.23322381079 0.05658037588
          -0.081230960786 0.41262343526 0.4639749527 0.19036881626 0.63904237747 0.19251100719
          0.32987079024 0.1864387691 0.6378210187 0.46442773938 0.1903745532 -0.073225453496
          -0.37917810678 -0.11017848551 -0.37514775991 -0.011417861097 -0.18154524267 0.43031150103
          0.4924454689 0.15697476268 0.70621180534 0.15923555195 0.3266672194 0.15095487237
          0.70212817192 0.48769852519 0.14919932187 -0.17395114899 -0.59313207865 -0.32572522759
          -0.59427422285 -0.22098131478 -0.38677573204 0.22537983954 0.29252529144 -0.053479719907
          0.50580000877 -0.050035633147 0.11856043339 -0.054169949144 0.50315696001 0.28392645717
          -0.053635608405 -0.39255696535 -0.82698208094 -0.56875044107 -0.82819026709 -0.46744409204
          -0.62588500977 -0.039462648332 0.023138908669 -0.3068421185 0.22816583514 -0.30420860648
          -0.13911758363 -0.30683428049 0.2287581563 0.02534705773 -0.30013635755 -0.6326162219
          0.37679699063 0.32461392879 0.37527367473 0.3074952662 0.33964261413 0.23077736795
          0.22013293207 0.27605473995 0.18633629382 0.27532327175 0.24609519541 0.27490866184
          0.18069647253 0.21085605025 0.27388751507 0.33487033844 0.22582808137 0.21110020578
          0.16361609101 0.28960159421 0.25349479914 0.16192954779 0.21192099154 0.67136949301
          0.61282539368 0.55998468399 0.53638130426 0.61625391245 0.70505809784 0.61598151922
          0.5387507081 0.61353588104 0.56933414936 0.65705132484 0.60937088728 0.69607269764
          0.83704793453 0.76013344526 0.69088017941 0.64605468512 0.76469600201 0.8830794096
          0.76267248392 0.6384794116 0.75817131996 0.67125225067 0.82049620152 0.74160146713
          0.87954437733 0.64433270693 0.54824638367 0.46343362331 0.40336373448 0.55345547199
          0.70638620853 0.5501318574 0.39372614026 0.55004537106 0.44513231516 0.64534699917
          0.54183071852 0.70890635252 0.32008564472 0.23256976902 0.1363658309 0.069604344666
          0.22790014744 0.37453061342 0.22634126246 0.069948151708 0.22803175449 0.12979708612
          0.32519447803 0.22908203304 0.37536016107 0.13235798478 0.055774778128 -0.033598456532
          -0.087458647788 0.048430930823 0.16998676956 0.049753356725 -0.079108327627 0.047246776521
          -0.019829554483 0.1178015396 0.047668989748 0.1576705873 9.2809128438e-11 -1.0060691863e-11
          -2.4283968933e-12 4.2840578307e-11 5.4486883755e-11 -6.9148610449e-11 1.0973924894e-11 -3.0642571813e-12
          -7.6329865822e-13 0 0 0 -7.0268308316e-13
        </DataArray>
        <DataArray type="Float32" Name="uz" format="ascii" RangeMin="-0.51925623417" RangeMax="0.46215739846">
          -0.13608634472 -0.080440923572 -0.14722551405 -0.13399888575 -0.12430357188 -0.15833860636
          -0.063646242023 -0.068788737059 0.010421079583 -0.0028792445082 -0.039880018681 0.050761304796
          -0.039771862328 0.02237100713 -0.20101313293 -0.18987546861 -0.23854339123 -0.18576698005
          -0.037004258484 0.034045446664 -0.011685014702 0.024587254971 0.068515017629 -0.26176699996
          -0.21584184468 -0.21510523558 -0.084429465234 -0.17214393616 -0.086631685495 -0.11990095675
          -0.14897413552 -0.076340049505 -0.055419351906 -0.11965491623 -0.15491838753 -0.18219684064
          -0.21806797385 -0.010005624034 0.049433957785 -0.022413147613 -0.05707096681 0.038868520409
          -0.020114548504 0.045289210975 -0.024807918817 -0.061589296907 -0.090401545167 -0.070218585432
          -0.13750050962 0.014027230442 0.057091355324 -0.00071504659718 -0.10883641243 -0.071064576507
          -0.1877618432 -0.14140494168 -0.23021249473 -0.047528129071 0.019990593195 -0.14947296679
          -0.091773286462 -0.1496334374 -0.075534157455 -0.11502484977 0.006366583053 0.018437733874
          -0.048391740769 0.067714296281 -0.043945744634 -0.014994910918 -0.052038744092 0.065230548382
          0.020923124626 -0.04931538552 -0.11258489639 -0.078463539481 -0.089942112565 -0.14919266105
          -0.012957347557 0.0055041285232 -0.017133831978 -0.082164384425 -0.093085005879 0.002427328378
          -0.034287527204 0.031204840168 -0.15219585598 0.067739330232 0.095179140568 0.070509716868
          -0.17823432386 -0.0098691750318 -0.086512826383 -0.14686091244 0.041109479964 0.12187318504
          -0.046964615583 -0.17886844277 -0.13318903744 -0.065804228187 -0.032131034881 0.062467280775
          -0.24101273715 0.066071547568 0.16473270953 0.18468953669 -0.23256810009 0.020418370143
          -0.063034914434 -0.12540073693 0.073990084231 0.15606978536 -0.015349376947 -0.15622268617
          -0.11532180011 -0.021611701697 -0.0035924625117 0.1022682637 -0.23548385501 0.11988828331
          0.2185241282 0.23054751754 -0.22243174911 0.014702783898 -0.027115855366 -0.088155195117
          0.082028321922 0.12477076799 0.045511569828 -0.053621415049 -0.049904085696 0.060368727893
          0.034856073558 0.12594719231 -0.13304685056 0.16185757518 0.21500088274 0.20299261808
          -0.14364095032 0.027410058305 0.018742082641 -0.023164369166 0.07241986692 0.083510130644
          0.073653973639 0.036893289536 0.017976315692 0.095191776752 0.05685589835 0.10268411785
          -0.015260853805 0.13652276993 0.14762362838 0.12964612246 -0.039742637426 0.089686714113
          0.098025940359 0.1113191396 0.073095537722 0.067517437041 0.07748644799 0.10272585601
          0.10231526941 0.076023057103 0.081889569759 0.056441184133 0.12014327943 0.048816319555
          0.039168067276 0.046345736831 0.12162288278 0.17651264369 0.19154773653 0.27020952106
          0.087120220065 0.060367491096 0.084072165191 0.17349381745 0.19275783002 0.05340591073
          0.11495678872 0.018540261313 0.26713696122 -0.045535098761 -0.079851657152 -0.036403950304
          0.30376929045 0.24886444211 0.25948727131 0.3788472116 0.11710435152 0.078612133861
          0.10435759276 0.21481694281 0.24796701968 0.054131418467 0.15194895864 0.021793460473
          0.35090535879 -0.072093591094 -0.11726889014 -0.05965686217 0.41347083449 0.26096364856
          0.25965631008 0.36219757795 0.14054308832 0.11373065412 0.11134143174 0.20356205106
          0.23779277503 0.061724551022 0.15900532901 0.047048922628 0.32597109675 -0.044633455575
          -0.072808146477 -0.012590367347 0.38399210572 0.26238781214 0.225451231 0.29697725177
          0.16949395835 0.18208737671 0.10403034091 0.13027076423 0.1826864928 0.057698719203