<VTKFile type="UnstructuredGrid" version="1.0" byte_order="LittleEndian" header_type="UInt64">
  <UnstructuredGrid>
    <Piece NumberOfPoints="791" NumberOfCells="973">
      <PointData>
        <DataArray type="Float32" Name="ux" format="ascii" RangeMin="-610327.3125" RangeMax="383844">
          -127990.92969 -182824.95312 91409.265625 -18599.519531 28634.09375 159207.75
          -5135.5424805 20057.943359 -59096.039062 -127943.98438 -124488.57031 -16021.629883
          23545.683594 -46183.164062 -9036.7988281 -30257.658203 52267.570312 -104117.80469
          -156267.90625 20208.380859 34854.171875 -53368.507812 -52777.296875 32401.423828
          38396.054688 12420.772461 -137429.17188 -76004.390625 -218473.4375 35499.339844
          -67227.757812 -610327.3125 115208.01562 160699.4375 -48533.007812 -100804.47656
          -38291.933594 71186.554688 -32033.052734 18470.105469 -123675.46094 -109806.57031
          -39531.792969 7457.9179688 -36118.402344 -24447.525391 193331.09375 -56078.300781
          -171128.73438 -26932.126953 -82200.59375 11958.701172 26182.201172 -60478.648438
          61522.105469 -19660.679688 -91053.546875 -4347.4067383 -101558.03125 120459.55469
          2388.3208008 28240.720703 111811.92188 21042.978516 -5441.1245117 -70166.203125
          114792.42188 23863.21875 140230.07812 87546.460938 -57458.085938 64024.183594
          4789.8735352 37958.53125 -37476.988281 121224.10156 15260.703125 -19233.753906
          129037.45312 88379.460938 -68207.101562 -49763.5 36901.785156 70250.164062
          196292.34375 119212.83594 -60091.542969 20725.244141 59852.527344 10632.542969
          25077.730469 37358.292969 15488.150391 -25318.001953 19605.474609 -34738.835938
          -28123.808594 -5529.6455078 41064.832031 106127.29688 12749.591797 135986.54688
          2374.984375 -23454.185547 -60152.164062 39467.171875 14745.830078 -94527.710938
          -28485.921875 5085.2851562 46858.742188 -33073.902344 -24530.634766 45498.046875
          90751.117188 100435.70312 93826.664062 3314.1210938 33107.886719 81785.0625
          77851.429688 -4023.364502 64747.824219 -146880.25 -187904.0625 52467.652344
          23621.140625 -63682.183594 -77070.914062 -73430.835938 -12201.804688 11649.323242
          -70648.460938 -120533.3125 -1191.3448486 -50818.453125 -16142.271484 -79345.273438
          -5775.1733398 -40228.527344 82880.648438 -39491.25 99992.25 5642.6928711
          9767.7109375 9287.8125 -78656.421875 -59241.929688 -6504.5834961 -117921.15625
          -25892.917969 47622.941406 71708.03125 24859.476562 28769.712891 17517.078125
          139547.65625 -223.36039734 68667.640625 18774.03125 -47382.0625 87859.546875
          48476.226562 105657.49219 203738.10938 -423.40826416 47877.1875 54128.925781
          128500.29688 52650.828125 41610.4375 -25848.353516 225879.875 9745.2607422
          40120.132812 10937.6875 -67452.734375 -8087.6445312 -158940.0625 7558.9648438
          -111449.53125 4160.5249023 18041.080078 -110223.76562 -13022.192383 11344.390625
          38365.582031 -54454.507812 37769.367188 -52462.59375 -24560.171875 -50686.671875
          45322.441406 -13166.142578 -192331.5625 -156520.57812 -161116.8125 -155496.09375
          22140.410156 -163336.64062 -83614.921875 -21560.867188 -31685.296875 77163.53125
          -58564.394531 72284.867188 104291.42969 32352.988281 111153.99219 -44671.175781
          -169464.82812 -161522.03125 -37371.480469 140458.79688 14203.361328 -173826.48438
          -86197.875 125132.35156 -7760.0224609 148947.26562 -52012.550781 140616.375
          149245.65625 118472.05469 167860.96875 -28985.427734 -28979.027344 -67635.023438
          72313.523438 343592.59375 3667.0134277 -8521.2558594 -47739.621094 182219.15625
          47827.996094 18652.746094 -16507.78125 -30002.054688 -13783.758789 133065.60938
          -113416.57812 8400.2255859 -91385.648438 16113.419922 66504.648438 284878.09375
          -22435.923828 59797.316406 1405.631958 65400.296875 -25189.894531 104068.17188
          42611.660156 11778.666992 -90328.40625 47326.78125 49569.238281 57460.960938
          -104169.6875 -134662.98438 99369.882812 -20813.292969 10737.914062 -52498.46875
          -3500.5524902 -42709.765625 -5890.1391602 -820.69610596 61444.480469 24029.853516
          -67056.375 29271.720703 89979.117188 142135.20312 179466.01562 -8725.6796875
          84221.929688 -80899.726562 44684.835938 58399.652344 92463.359375 -25886.273438
          57872.6875 829.85101318 -31607.947266 -13502.470703 -103929.65625 44903.011719
          267.89245605 11337.617188 -409.18942261 -152345.60938 26080.845703 -22765.326172
          -32931.414062 10956.894531 98054.9375 -19197.417969 -20341.707031 -12694.027344
          -132009.125 -19442.496094 -109631.33594 -35612.949219 -43079.972656 -22463.59375
          -4412.9814453 19481.013672 43554.226562 41807.765625 -90011.992188 39053.785156
          607.9510498 -18081.191406 -56175.992188 26635.634766 -146061.89062 97217.226562
          -146127 -135586.89062 -71483.539062 -13678.376953 67623.726562 17663.210938
          -16148.160156 24134.660156 -74435.328125 -77919.125 -179229.95312 -19789.306641
          -21459.958984 27201.654297 -22304.626953 59569.507812 39650.785156 -5239.8032227
          68610.617188 -36142.382812 27308.248047 -35926.195312 -62407.324219 48621.152344
          -2247.6330566 -10203.418945 -48358.964844 36669.898438 -4219.715332 56933.042969
          -407260.3125 226033.15625 116496.09375 4973.3027344 -66831.859375 -92198.578125
          -9217.6865234 -82796.4375 188220.75 -184655.04688 -47434.875 49673.242188
          132730.70312 -23222.753906 -36828.910156 -81065.226562 -77368.539062 -19105.785156
          54648.316406 4227.0834961 -5313.6689453 40637.773438 -66268.085938 -68825.015625
          -90734.34375 -153403.32812 -194603.29688 -65198.824219 18538.896484 -44021.28125
          42909.269531 -12127.077148 82456.445312 20107.785156 -101842.55469 -69640.140625
          -132003 -158719.70312 18172.869141 32010.066406 49500.933594 -2438.0756836
          92174.664062 52511.515625 26859.017578 -78591.429688 53947.183594 85432.835938
          -20557.132812 26485.189453 46915.09375 -17052.835938 -19175.253906 -123652.64062
          -96303.101562 115518.82812 -102267.47656 64926.136719 -3744.0539551 1891.7281494
          -67928.9375 -96082.859375 -18021.726562 -191215.9375 78788.460938 -60027.890625
          27655.630859 -22455.078125 31695.822266 -83130.023438 60490.851562 168527.32812
          -41467.117188 -19281.773438 54144.476562 25953.390625 61582.300781 -11999.240234
          25257.537109 42107.390625 113288.51562 4189.4902344 -25154.835938 -46377.710938
          32355.009766 38656.808594 39383.140625 -12546.118164 -54387.808594 -95552.296875
          44562.859375 166.34718323 44764.214844 -140333.8125 59082.671875 97337.367188
          232146.98438 48805.433594 -2682.2641602 8419.3945312 57322.496094 70339.523438
          -105748.28125 -264429.40625 -70529.289062 -155999.95312 -57786.175781 39310.570312
          6188.0644531 -95489.84375 39018.742188 75837.4375 151073.60938 12530.867188
          26282.251953 63269.191406 29832.138672 1210.4512939 -80974.859375 -106926.84375
          -179573.26562 -154204.67188 -21722.664062 16109.12793 29316.240234 -69037.59375
          57295.679688 62522.476562 100862.48438 -35662.785156 48515.152344 31053.15625
          32691.779297 -7332.3408203 19992.023438 63337.351562 -26536.03125 94768.59375
          7742.4360352 188962.1875 45059.34375 78792.546875 -60995.320312 15924.513672
          53923.761719 67003.09375 93777.921875 57946.714844 82033.523438 -21323.255859
          -25535.058594 -6978.5566406 124976.13281 161687.34375 -60082.257812 144286.71875
          46039.0625 -21273.607422 -97129.015625 110194.85156 -158103.39062 -5926.3579102
          122125.32812 45399.398438 -280.85244751 106850.53125 -70110.875 -201728.8125
          33280.957031 -93431.460938 -25045.037109 -154314.15625 -89286.054688 -99904.867188
          -45600.339844 49224.230469 -107014.21094 -28081.345703 11904.578125 2220.6049805
          -81229.34375 -3291.2333984 -37683.578125 54307.808594 -175490.98438 -184471.75
          74385.132812 4217.8300781 -33543.394531 -241437.64062 -123236.07812 -75538.335938
          -26509.111328 -849.69732666 -97139.953125 -84120.789062 -72239.390625 15897.225586
          -85738.398438 314364.65625 -199926.20312 121921.66406 -3457.4699707 260630.76562
          87234.515625 -158922.5 -126485.46094 -168200.71875 30790.931641 -18527.169922
          18935.833984 -30115.421875 5245.5488281 87193.875 -71158.757812 367917.125
          -173595.45312 66551.140625 -18105.574219 229369.60938 118267.21094 -1930.3145752
          -72663.203125 -30946.277344 2178.230957 85537.21875 138518.96875 34625.292969
          28103.818359 141768.03125 24065.699219 303925.40625 -171420.53125 -47665.953125
          25549.298828 194688.20312 35571.179688 -117417.65625 -73427.289062 -73035.085938
          43000.753906 82923.03125 33381.277344 59955.175781 28353.818359 112199.02344
          17904.576172 82293.242188 -4921.9580078 -68406.265625 37483.261719 108215.76562
          -10970.091797 -65975.71875 8173.0229492 31004.542969 98135.234375 53593.5625
          -83418.0625 3802.1115723 -80804.671875 76455 -87979.921875 2556.6464844
          83980.992188 -3473.1474609 -67858.140625 29288.042969 90169.546875 -32318.033203
          -22807.181641 55985.921875 -98728.90625 19997.744141 -140034.73438 -43946.460938
          -76351.414062 199640.76562 -24967.345703 -76256.210938 55102.160156 161238.625
          -71047.828125 82939.773438 -10656.551758 -114542.375 -120409.17188 -615.88763428
          -24768.382812 -73270.171875 -11932.835938 -923.90301514 97070.882812 92498.171875
          63611.742188 -168680.53125 102971.04688 178515.6875 -21860.603516 -99424.75
          -60319.136719 -67744.554688 -31500.623047 167353.32812 1284.7681885 -98758.46875
          42960.144531 44494.097656 108291.96875 -15462.054688 69571.953125 103916.05469
          -34838.378906 -213958.73438 70928.195312 40903.03125 37945.871094 -128929.23438
          -91359.46875 146916.45312 98738.015625 -11623.114258 -59630.261719 -52216.515625
          -37726.402344 36775.878906 39369.480469 51831.433594 -68308.4375 -163131.40625
          58315.988281 -29.410572052 -14059.520508 -133908.1875 -92847.859375 -34054.824219
          27017.484375 335.02160645 -41632 -16022.603516 -1254.1044922 -2441.9384766
          6906.7416992 -35225.777344 -50425.136719 172012.35938 104382.90625 -64465.292969
          -24686.044922 -143908.98438 -21519.039062 -91223.273438 -53282.550781 -51334.71875
          -39885.464844 -2399.3571777 24311.835938 10625.772461 -130189.53906 -49206.3125
          -35193.816406 -33003.679688 -86027.976562 -72996.085938 -9245.7695312 -20437.742188
          127160.34375 -63063.035156 120191.5625 -56794.90625 -18521.03125 18082.720703
          -4707.0102539 -121425.78125 -50222.203125 -80059.804688 -58371.0625 -65775.398438
          -125051.28906 23590.736328 -99524.476562 95203.429688 29921.041016 -18516.033203
          19328.541016 179290.95312 134504.1875 7224.1381836 104078.28125 -55012.792969
          -15962.084961 -22883.607422 150000.64062 50348.230469 149124.26562 159329.39062
          33725.757812 219134.15625 95110.625 -50614.210938 43253.046875 169115.60938
          -78914.765625 101898.22656 137947.26562 89054.296875 146466.96875 189691.8125
          284783.03125 217980.96875 383844 187483.84375 194503.71875 111364.33594
          114811.72656 -546.23046875 180989.29688 121469.74219 -36320.109375 38383.871094
          182897.20312 306424.28125 212681.73438 233152.54688 102136.98438 264944.9375
          93579.945312 113685.35156 91258.390625 37071.503906 0 0
          0 0 0 0 0 0
          0 0 0 0 0
        </DataArray>
        <DataArray type="Float32" Name="uy" format="ascii" RangeMin="-611716.1875" RangeMax="462773.125">
          -25602.005859 49579.117188 110215.10156 -233304.65625 2702.7414551 137021.23438
          155832.89062 -99074.539062 11924.071289 -26817.083984 -251289.10938 -35314.265625
          24781.650391 91751.921875 -95551.15625 39544.660156 66544.828125 57394.042969
          136182.79688 84439.695312 -163702.90625 24530.666016 134051.73438 24954.365234
          59416.5 133006.73438 360767.875 -114125.90625 -7321.5458984 63774.597656
          -124446.57031 35506.132812 118706.66406 -254079.96875 -56560.125 145442.70312
          -16187.418945 -56328.949219 54080.363281 -195449.375 11737.996094 61646.398438
          -245879.75 -12814.513672 -49660.699219 134714.79688 241612.34375 -10857.976562
          -203551.59375 184619.625 166737.76562 -12383.668945 -21252.677734 -56154.480469
          46692.234375 -35466.136719 -65214.667969 5561.2231445 38159.472656 -115376.39062
          -19226.628906 -69877.851562 -154076.17188 -5604.3515625 -2296.7280273 40018.382812
          -72019.5 16838.052734 83374.523438 -64553.738281 33519.277344 -8653.2138672
          80005.242188 81792.5 -118797.97656 -146497.70312 86081.625 -10339.758789
          -103456.88281 -14643.207031 133443.42188 -8298.5400391 -88749.960938 -14895.1875
          -30096.550781 -23674.306641 123338.98438 25975.941406 23351.292969 -25350.277344
          -89770.820312 -83580.921875 181781.75 13118.143555 -255157.6875 23449.984375
          97756.914062 -72435.945312 -163214.03125 -56716.824219 -65027.683594 -35997.089844
          193478.3125 -32885.996094 -72790.710938 -54448.894531 -5865.8588867 -22720.449219
          25735.935547 48016.023438 -70693.085938 18947.673828 62856.988281 -14620.332031
          -64587.742188 -14975.505859 103074.34375 -121472.21875 106971.70312 40410.140625
          63786.472656 26644.962891 49231.550781 -118540.23438 -103571.85156 21307.431641
          -139943.04688 -6488.8286133 10093.305664 -22561.986328 -125205.52344 -17837.458984
          154494.07812 -162051.5625 109030.6875 -50166.171875 -48693.976562 -56002.15625
          -16510.154297 -7462.2143555 -112656.69531 -69456.273438 5468.6899414 -15690.709961
          -112246.32031 19322.486328 -11791.518555 -32756.234375 74730.664062 -124772.52344
          15057.635742 -46718.453125 13090.211914 -38586.234375 17541.095703 63928.847656
          365.01290894 2501.0439453 73177.90625 13654.720703 1513.776001 -101611.875
          56447.507812 -61226.921875 40582.617188 -198339.35938 -103355.92188 -4601.4985352
          61486.585938 61286.847656 38147.296875 89524.351562 -28921.121094 15452.191406
          103052.1875 66475.945312 121452.91406 -62270.96875 28903.617188 -29377.898438
          154803.04688 -20492.986328 3117.9753418 -4344.0283203 38665.921875 147447.96875
          76507.75 102328.97656 -62747.101562 -18285.5 -38749.675781 19795.03125
          157762.46875 13735.266602 -85950.179688 110384.35156 100985.22656 -39518.148438
          17561.730469 3405.1865234 34916.054688 66872.125 27867.003906 57211
          -7743.1308594 2955.7678223 -141698.82812 57879.546875 43213.160156 -54628.414062
          -177993.0625 41139.703125 59549.929688 -37801.476562 38432.515625 -99505.296875
          -74552.328125 5162.6303711 125023.07031 9321.1787109 11421.037109 49196.816406
          -5684.6235352 6142.965332 -22308.021484 -5536.1220703 -237637.17188 51474.613281
          17571.435547 205784.85938 129765.1875 -19159.886719 -99860.5625 -4286.6723633
          88856.257812 -29476.337891 -191196.9375 -11558.431641 109413.125 -165367.73438
          24684.714844 39909.871094 178213.39062 25329.339844 -259486.59375 206550.64062
          -104393.77344 63641.5 -82833.617188 -107136.875 -24497.115234 -69267.328125
          -41974.042969 -34468.433594 71201.703125 -93314.75 124799.71094 90062.609375
          177372.90625 43506.921875 63089.515625 88640.46875 -63152.308594 47926.539062
          44974.820312 72286.03125 21845.199219 -25809.855469 73581.789062 -2273.9936523
          108500.38281 -8556.5205078 -11565.774414 44451.359375 175804.64062 27793.681641
          -17800.453125 -54496.074219 -82142.273438 -4560.3007812 16230.369141 22079.181641
          -51291.769531 19027.880859 109264.25781 -7395.7890625 -10586.963867 15082.735352
          -85576.921875 43474.164062 160570.32812 44434.433594 -61142.390625 -177504.10938
          -129657.23438 -68533.710938 -39168.140625 -510.80679321 -82153.007812 -14838.375
          135626.35938 57759.324219 -53728.765625 79887.242188 -50508.417969 -53322.96875
          51718.644531 20756.378906 -172344.20312 -87421.757812 -28303.048828 -61844.070312
          -22978.658203 -25677.808594 -73668.382812 -41733.363281 173886.67188 58271.28125
          -119085.19531 216175.29688 2018.3988037 -60979.636719 -87951.75 16660.556641
          -139225.26562 62932.382812 -17569.708984 -52425.230469 -99002.273438 25984.787109
          -112738.85156 -16955.501953 49525.964844 843.01538086 -27853.716797 82043.804688
          -670.67651367 11624.454102 -89670.9375 38281.136719 39067.988281 111064.01562
          39385.085938 -19451.96875 -39382.640625 5903.2958984 -31713.236328 -130781.71094
          87631.101562 53972.742188 -5206.1450195 86176.046875 70551.695312 48485.679688
          -249671.84375 -43521.457031 436081.28125 -210594.46875 75061.992188 -22529.488281
          162444.46875 44866.226562 -10374.306641 -8172.0639648 29993.283203 -18040.882812
          112522.44531 -4025.0866699 6911.4921875 45795.988281 -63496.980469 60421.625
          -47253.757812 -37121.558594 39627.9375 4842.0166016 11050.556641 1379.2109375
          48735.464844 30850.796875 132205.3125 54962.113281 66101.9375 101415.38281
          2552.8049316 91560.546875 65592.5625 42633.636719 111080.46094 43965.394531
          95693.46875 20843.767578 -22005.533203 -47250.386719 43977.949219 6562.8540039
          158999.59375 113482.8125 158649.01562 150136.45312 288.31286621 18763.271484
          -23225.65625 -56266.085938 46306.21875 -17128.679688 -3914.7932129 128286.90625
          -6182.7163086 -122105.69531 -9199.3271484 108633.97656 -268727.0625 -13338.886719
          172.77053833 105185.95312 53256.929688 8608.2871094 2758.2270508 -147058.0625
          6626.8505859 -160537.67188 -2717.0773926 -130993.72656 7844.7768555 -232656.40625
          -61786.671875 212155.84375 -323217.3125 -52233.980469 -25478.125 36515.691406
          15024.662109 -30925.460938 37122.933594 -55215.707031 -9881.0068359 10885.610352
          -43154.003906 -208599.42188 63520.257812 5381.4960938 9802.1494141 -2763.0375977
          -45621.140625 -113139.35938 48083.484375 6445.3071289 -38123.484375 -29961.257812
          50206.742188 6306.9448242 35731.53125 112398.22656 9090.4960938 -319968.25
          2600.1242676 178564.01562 12432.603516 -145323.89062 129986.89062 -183064.09375
          13859.887695 -111012.71875 -43944.421875 -26304.390625 86172.921875 17928.738281
          73244.320312 280096.0625 67495.976562 -173573.39062 13945.527344 173393.23438
          -34023.972656 5544.3701172 217272.28125 -139467.76562 3673.3457031 -77909.414062
          39553.1875 58788.179688 41387.957031 13201.068359 944.69543457 220562.73438
          9671.5634766 44295.535156 -37417.414062 -68346.070312 -103692.88281 17912.373047
          60523.832031 61155.609375 4087.5354004 -83919.132812 6797.4677734 27882.166016
          3600.8811035 15021.121094 -62083.308594 37543.703125 -94581.351562 80027.90625
          -24114.240234 68243.390625 -20790.335938 -228605.65625 43811.910156 -8383.5068359
          44169.359375 -43053.808594 -506.20611572 -76645.398438 17604.619141 66506.585938
          -2945.6101074 -88091.4375 100441 -14689.164062 -14942.845703 76044.507812
          44757.296875 -121337.6875 -61160.25 -52977.828125 -27055.486328 25099.566406
          34992.652344 -47713.71875 -58743.75 71662.84375 73745.085938 -80479.820312
          201596.0625 -128083.67969 -58238.660156 143825.17188 -52838.820312 -46014.839844
          -140914.21875 -162936.75 -93943.890625 35301.25 38068.566406 -63337.378906
          -70842.898438 57036.679688 18376.638672 -52269.605469 9024.4306641 -77452.984375
          -44586.007812 56552.519531 -110754.30469 -52037.707031 -277026.8125 -28014.001953
          -85927.710938 -79396.007812 -28324.777344 -2417.3173828 -80077.570312 -6810.2167969
          43437.351562 -78256.765625 -32249.855469 129916.85938 49585.585938 -50202.875
          -56046.523438 113913.07812 -216322.82812 43141.234375 23122.798828 5051.7949219
          11482.350586 46127.417969 -68311.664062 -112470.97656 52986.847656 60327.992188
          41856.171875 44718.160156 116168.03125 111279.21094 -34244.667969 -22107.564453
          118578.01562 -28010.585938 165109.9375 -1750.1671143 25749.689453 -11436.224609
          -27510.335938 57320.777344 -52226.226562 -71939.390625 93960.984375 -111508.86719
          104753.96094 100502.6875 5215.2324219 -24984.970703 162264.79688 -23461.263672
          64424.257812 -28749.371094 -12131.90918 -52381.03125 -19446.617188 133728.78125
          -85981.9375 -119214.5 -3055.8432617 -7627.9975586 152266.48438 166439.67188
          78274.179688 -45502.226562 135935.34375 -29693.376953 91982.476562 24100.199219
          5678.4238281 -93595.484375 39516.300781 133064.34375 -24983.798828 95045.632812
          -70862.84375 16556.048828 51809.617188 174128.35938 -43062.585938 -60113.75
          109528.39062 -11524.585938 114354.33594 -13571.957031 53805.070312 31337.796875
          -2047.3270264 5493.0947266 -39175.1875 11223.381836 -120589.00781 -90304.34375
          -12133.255859 68651.414062 -21302.029297 -185225.1875 87439.742188 18550.146484
          -4440.8012695 -125340.41406 -86608.617188 7020.7705078 -67052.484375 53381.902344
          4606.3183594 -181567.09375 111070.51562 -76022.773438 78542.1875 -126279.375
          -5567.1000977 206429.09375 51476.5625 70379.140625 79940.335938 -69367.21875
          -6524.5249023 -59355.351562 -29618.568359 -8835.7421875 21270.990234 -80864.664062
          74758.070312 -50463.183594 -826.81921387 -88226.03125 -32352.441406 134575.625
          -23530.072266 890.39013672 19535.800781 -28603.859375 -3631.4589844 -29368.246094
          -61117.230469 4361.2021484 -167907.59375 -79682.195312 88028.023438 87607.25
          60223.773438 126435.38281 91994.625 -8795.4082031 182875.76562 -93838.5625
          58896.710938 66829.289062 141143.96875 -93036.90625 74828.765625 159071.1875
          51988.113281 108871.60938 90080.265625 102494.73438 88580.617188 98646.6875
          219113.15625 -158010.35938 78585.398438 -16465.072266 -23082.369141 50225.765625
          -203041.95312 -40202.480469 -167098.5 -180804.35938 181744.90625 -61147.039062
          123952.49219 -116661.875 140769 8472.5830078 79652.851562 -39874.574219
          -611716.1875 -56096.625 462773.125 -452896.3125 -403572.71875 165978.03125
          -201431.39062 8819.5683594 60928.550781 -123355.73438 -16400.607422 -21974.283203
          -71196.367188 -550856.3125 -264536.28125 66128.953125 -288369.8125 -380865.96875
          102373.17188 -71498.640625 -112104.26562 82690.4375 -210625.07812 -112760.95312
          -35884.140625 -42334.277344 -256601.28125 -120375.39844 -113918.42969 -99426.351562
          -134069.78125 -18029.15625 -71759.710938 11854.782227 -63068.496094 -11958.625
          -152256.3125 -161057.20312 8969.4755859 -165163.60938 -4541.9570312 255555.98438
          -75366.109375 35522.203125 -51190.984375 -143633.53125 0 0
          0 0 0 0 0 0
          0 0 0 0 0
        </DataArray>
        <DataArray type="Float32" Name="uz" format="ascii" RangeMin="-434717.5" RangeMax="258386.84375">
          -95872.492188 -106397.875 118931.78125 58597.15625 54885.292969 -5128.6826172
          200563.15625 110521.55469 16383.917969 -65763.640625 88.125976562 49300.605469
          -18333.425781 4064.9084473 -43407.199219 3274.9973145 16779.755859 72693.578125
          -95759.28125 152443.5625 -69004.453125 -44467.230469 36657.117188 92686.195312
          -40631.753906 16782.960938 50205.910156 -44624.539062 -5167.4770508 14602.630859
          -55102.21875 10207.03418 -84205.679688 -113657.75781 -77429.085938 -92382.742188
          -40087.800781 -48585.765625 21858.601562 41735.988281 103.14809418 53539.351562
          -44216.734375 -52647.273438 20620.878906 -45027.476562 -54973.050781 -171059.65625
          -44011.28125 49709.726562 22160.369141 -67641.976562 -43866.023438 -35479.359375
          -43688.84375 -83325.8125 -25583.238281 61575.652344 -26997.257812 61354.980469
          88077.5 64852.410156 -3476.3078613 -33441.121094 -84825.414062 -31022.013672
          -24503.464844 -31587.128906 48012.828125 -73352.3125 -4635.1557617 -6061.4228516
          21556.587891 -27631.238281 48369.609375 66013.046875 29666.414062 27431.064453
          82834.789062 10505.041016 -130693.83594 -55470.761719 -35829.402344 -88114.320312
          -12726.071289 -57259.058594 -18232.935547 -104780.65625 8096.09375 16019.326172
          -23781.789062 84566.726562 78801.929688 58663.566406 23739.115234 -9099.3183594
          -119540.25781 -26202.140625 1627.4080811 -77621.632812 -57141.183594 -93932.742188
          32638.234375 -103173.53125 -4321.440918 -15317.900391 38919 49197.835938
          23102.490234 18777.642578 27946.25 16974.638672 -88383.09375 -20014.5
          45585.664062 -36650.746094 -7883.2416992 -7713.5820312 21191.066406 -40938.894531
          12893.942383 39340.113281 49620.28125 29501.322266 57130.878906 31070.701172
          54943.585938 13319.62207 4817.5717773 -48983.398438 20582.871094 -19721.277344
          82738.703125 9626.7392578 -8287.4853516 6071.6982422 4191.6728516 -3016.9519043
          42760.109375 -31557.394531 -35654.914062 -213.61343384 -74667.648438 -68397.828125
          -45677.925781 -108816.07031 -159510.64062 -6798.3945312 -28055.251953 -8025.4243164
          -72541.640625 52697.957031 15327.757812 -71567.914062 -37508.203125 -26808.685547
          -87696.59375 3144.5297852 -59210.40625 -45209.238281 -78262.273438 -106055.83594
          -171094.5625 -23903.710938 -93942.609375 -65255.339844 -82655.382812 -35360.695312
          -6849.9418945 -64003.503906 -90973.859375 48234.179688 -57114.300781 -12609.887695
          77212.710938 55497.792969 8851.1083984 28591.335938 1860.9932861 49439.882812
          -7498.2646484 45606.609375 -59694.367188 1053.4780273 -39100.984375 16303.822266
          -98199.867188 105050.5625 40486.976562 32756.867188 106488.41406 61053.066406
          89623.195312 137118.14062 152150.39062 99485.132812 129722.46094 27576.689453
          36744.550781 28417.001953 -18643.554688 25666.294922 4490.5751953 91811.65625
          82649.054688 34186.804688 29259.537109 1900.4398193 49541.023438 87952.273438
          97589.429688 21523.371094 68722.789062 -21578.216797 27117.585938 -26915.761719
          -21314.888672 -17618.318359 24135.308594 34903.863281 -15690.163086 7039.1362305
          8212.9228516 12673.549805 70455.703125 71325.78125 53232.546875 30417.306641
          76619 119628.25 50404.113281 46308.863281 42829.378906 48550.664062
          24251.380859 -91234.515625 -120092.27344 -47541.453125 -27806.455078 -19736.818359
          111517.54688 68904.984375 99520.859375 12036.029297 48453.304688 162772.73438
          78881.0625 87858.179688 102525.84375 84922.03125 34852.683594 -94495.15625
          -106904.17188 -51643.507812 -145369.92188 -33010.167969 31414.748047 2292.324707
          7436.7714844 28015.740234 -88679.304688 42493.347656 15140.196289 54272.757812
          20724.765625 -26440.359375 -2021.824707 -32939.0625 -105692.41406 -37326.214844
          -84055.59375 -33996.449219 50565.210938 28209.740234 20361.740234 51643.058594
          -120127.9375 -14303.455078 -2010.9462891 45951.800781 -44112.140625 -65774.3125
          -2735.0786133 106630.89844 133774.89062 69216.859375 130555.21094 57868.828125
          -17201.599609 11910.865234 89903.515625 -31114.402344 82627.117188 -23324.105469
          53725.707031 -34501.835938 -3470.3483887 44396.183594 121048.33594 54118.828125
          102625.76562 40006.8125 174409.75 66650.960938 -92696.5625 -76195.6875
          -33517.910156 -68092.28125 52707.007812 61681.195312 -7851.0131836 -53868.070312
          40033.6875 122785.59375 56897.863281 95.555747986 -66115.195312 -44625.15625
          147875.25 70242.75 73217.570312 13648.929688 -4329.2651367 715.64178467
          67378.140625 219458.75 -13163.683594 60396.503906 103240.82812 180464.9375
          -25670.953125 3091.4018555 -55440.558594 -17434.59375 25370.138672 24987.347656
          72824.609375 55919.484375 7126.3222656 31953.117188 27965.25 86340.898438
          24271.53125 64295.671875 62511.863281 71438.210938 -20268.076172 -7901.559082
          258386.84375 -202804.07812 -113698.22656 30565.763672 -68630.765625 18855.082031
          -99016.523438 46900.085938 -38064.65625 104621.21094 6248.4384766 -54251.75
          -113913.21875 40070.578125 13020.599609 -44604.191406 38382.410156 10769.444336
          37761.191406 69149.992188 -23776.910156 -46329.496094 49781.125 40288.820312
          -24484.552734 -46860.828125 -131101.03125 -98327.617188 171345.9375 5779.4951172
          89418.101562 42330.636719 115886.41406 2180.4643555 16324.878906 -16782.572266
          -9970.8671875 -100328.86719 17829.835938 -8774.1113281 88856.28125 -28782.814453
          174556.10938 -42968.957031 -8883.1123047 -11718.508789 71915.117188 -21202.609375
          55521.5625 353.05621338 97589.054688 28649.544922 -48110.308594 -92374.664062
          -29534.582031 -77681.3125 -47907.359375 -33069.304688 20636.169922 -53465.539062
          -14759.504883 -33060.578125 -17717.46875 -56877.242188 -77525.210938 31375.619141