<VTKFile type="UnstructuredGrid" version="1.0" byte_order="LittleEndian" header_type="UInt64">
  <UnstructuredGrid>
    <Piece NumberOfPoints="791" NumberOfCells="973">
      <PointData>
        <DataArray type="Float32" Name="ux" format="ascii" RangeMin="-0.94994360209" RangeMax="1.05377841">
          0.016091248021 0.088219150901 0.05856737867 0.0030745302793 0.014954837039 0.055791534483
          0.092519558966 0.060215570033 0.13622227311 0.1023093313 0.05955734849 0.14888867736
          0.062239717692 0.10533171892 -0.0043754461221 -0.015807554126 -0.017128067091 -0.017650952563
          0.15553857386 0.13696484268 0.16561768949 0.19505652785 0.21302586794 0.022506341338
          -0.016848675907 0.0358232297 0.027631826699 0.32831919193 0.39688116312 0.41810342669
          0.29729327559 0.35636639595 0.3775113523 0.31728649139 0.28491130471 0.25897148252
          0.23446895182 0.39610114694 0.48967155814 0.44707253575 0.35385069251 0.43725568056
          0.40049695969 0.41582939029 0.36950129271 0.37492629886 0.33606418967 0.31711694598
          0.28351223469 0.52022719383 0.46621543169 0.32876807451 0.29127201438 0.26104518771
          0.23103889823 0.234783113 0.20975491405 0.49280175567 0.44287875295 0.31823450327
          0.39206677675 0.4167688489 0.30348494649 0.23904056847 0.39040619135 0.49326065183
          0.44645494223 0.41258594394 0.36713773012 0.30339312553 0.5261785984 0.3165666163
          0.23987653852 0.20999263227 0.4969265759 0.27740901709 0.35702607036 0.38346448541
          0.26145222783 0.1919695586 0.35664182901 0.46760243177 0.416005373 0.38178423047
          0.33075085282 0.26149168611 0.50210547447 0.27696400881 0.19212114811 0.1592297107
          0.4701128602 0.22052590549 0.30888047814 0.33951690793 0.20203945041 0.12449507415
          0.30765047669 0.4305819571 0.37402260303 0.33567377925 0.27885559201 0.20196257532
          0.46858489513 0.21963624656 0.12496276945 0.08897600323 0.43433237076 0.16909012198
          0.26959258318 0.30403804779 0.14790078998 0.060088098049 0.26872423291 0.40957832336
          0.34368261695 0.3017167747 0.23579767346 0.14785370231 0.4513399601 0.16891352832
          0.06079493463 0.01891057007 0.41190746427 0.12982597947 0.2380425036 0.27526625991
          0.10691878945 0.012133448385 0.23807880282 0.39086830616 0.31916055083 0.27425950766
          0.20157630742 0.10696152598 0.43620207906 0.12916827202 0.011620962061 -0.033323381096
          0.39217171073 0.10603766143 0.21774353087 0.25451716781 0.082513540983 -0.014534547925
          0.2169777751 0.37616884708 0.30095148087 0.25389173627 0.17985790968 0.081344142556
          0.42231312394 0.10345752537 -0.017418798059 -0.061981294304 0.37582504749 0.075788758695
          0.1904541105 0.22743025422 0.052039798349 -0.046749435365 0.19112962484 0.35660848022
          0.27756035328 0.22988499701 0.15240961313 0.050960704684 0.40319639444 0.073267526925
          -0.05122012645 -0.09603343904 0.35308790207 0.023451181129 0.13927203417 0.17734670639
          -0.001692241407 -0.10250003636 0.13889957964 0.30774015188 0.22702132165 0.17946413159
          0.099905021489 -0.0032824927475 0.35442003608 0.019376499578 -0.10796788335 -0.15364688635
          0.30334079266 -0.037289593369 0.077285431325 0.11560484767 -0.063392341137 -0.16355507076
          0.077564693987 0.24562573433 0.16471399367 0.1182410717 0.038185078651 -0.064983844757
          0.29129120708 -0.041631996632 -0.16942019761 -0.21510744095 0.24067848921 -0.084001153708
          0.026956532151 0.064762197435 -0.10915106535 -0.20644511282 0.026890300214 0.1881801784
          0.11105753481 0.065444171429 -0.011258953251 -0.1108943969 0.2331046313 -0.088426418602
          -0.2117523402 -0.25587543845 0.1852440387 -0.11539422721 -0.005035599228 0.032946746796
          -0.14004731178 -0.23650948703 -0.0050944341347 0.15444031358 0.078655160964 0.032261956483
          -0.042364187539 -0.1409933269 0.20002834499 -0.11896307021 -0.24071910977 -0.28510400653
          0.15293636918 -0.14976599813 -0.0367311351 0.00070143846096 -0.17336227 -0.27133068442
          -0.037093795836 0.12466965616 0.048242267221 0.00024855224183 -0.074522510171 -0.17410045862
          0.17169649899 -0.15239135921 -0.27432069182 -0.31934195757 0.12418320775 -0.19767461717
          -0.083504401147 -0.045676615089 -0.22153106332 -0.32060834765 -0.085696861148 0.077181056142
          0.0014415634796 -0.049235586077 -0.12207232416 -0.22351105511 0.12590810657 -0.20285378397
          -0.32431700826 -0.36867579818 0.078176781535 -0.28098392487 -0.17099425197 -0.13505712152
          -0.30317947268 -0.39765301347 -0.17173065245 -0.015168115497 -0.088704787195 -0.13588373363
          -0.20754392445 -0.30383971334 0.031254742295 -0.28340274096 -0.4002905488 -0.44334238768
          -0.015250729397 -0.40109008551 -0.29817447066 -0.26369792223 -0.42188805342 -0.51147443056
          -0.29830664396 -0.15348142385 -0.22158224881 -0.26489216089 -0.33248138428 -0.42186254263
          -0.11057283729 -0.4009065032 -0.51094555855 -0.55352771282 -0.15258562565 -0.52271437645
          -0.4249112308 -0.39188152552 -0.54312700033 -0.62893992662 -0.42411363125 -0.28678914905
          -0.35212638974 -0.39122495055 -0.45722842216 -0.54268682003 -0.24720023572 -0.52099186182
          -0.62806665897 -0.66936707497 -0.28619584441 -0.62946069241 -0.53215998411 -0.49862349033
          -0.65042716265 -0.73609441519 -0.53246027231 -0.3956182301 -0.45992428064 -0.49976810813
          -0.56498992443 -0.65003490448 -0.35555496812 -0.62925940752 -0.73508268595 -0.77570343018
          -0.39450573921 -0.72210162878 -0.62448877096 -0.59217584133 -0.74232846498 -0.82724201679
          -0.62471580505 -0.48741087317 -0.55225050449 -0.59212219715 -0.65746343136 -0.74224352837
          -0.44704407454 -0.72186809778 -0.82699131966 -0.8673132658 -0.4870455265 0.1389080584
          0.21497349441 0.20789793134 0.16155934334 0.10292802751 0.2585748136 0.33836513758
          0.27654457092 0.29630449414 0.22042486072 0.18806445599 0.33327642083 0.22659094632
          0.15599128604 0.10941401869 0.28294807673 0.1744273454 0.24848417938 0.23293091357
          0.11869459599 0.10529644042 0.17195442319 0.091447904706 0.35181608796 0.35599431396
          0.35743936896 0.48480969667 0.47116029263 0.46630716324 0.35145357251 0.49002474546
          0.34818831086 0.50216829777 0.35607671738 0.35982078314 0.35875636339 0.47143340111
          0.44755882025 0.45989817381 0.3558383882 0.4651581049 0.35493257642 0.47681328654
          0.35218307376 0.49129980803 0.362998873 0.44290480018 0.35295271873 0.48889386654
          0.34993430972 0.50694411993 0.34807735682 0.51138949394 0.36200487614 0.45056712627
          0.61133426428 0.58219820261 0.57155656815 0.61796140671 0.64419126511 0.58197176456
          0.54056620598 0.5602055192 0.5715752244 0.59169155359 0.6182231307 0.52852290869
          0.61188405752 0.6445415616 0.65712159872 0.54047632217 0.72498857975 0.68608176708
          0.6722676158 0.73271769285 0.76721513271 0.6858150363 0.63323110342 0.65787529945
          0.67331898212 0.69895005226 0.73199021816 0.61716330051 0.72286397219 0.76463246346
          0.78169447184 0.6312520504 0.82317131758 0.77504169941 0.75831609964 0.83295619488
          0.87597209215 0.77543801069 0.70937567949 0.74031805992 0.75962519646 0.79121053219
          0.83308565617 0.69045341015 0.82197540998 0.87360548973 0.89489287138 0.70845490694
          0.90411376953 0.84746557474 0.82763832808 0.91762751341 0.96828532219 0.84797328711
          0.7685880661 0.80631417036 0.82768541574 0.86741137505 0.9177095294 0.74670630693
          0.90406256914 0.96802556515 0.99316811562 0.76859718561 0.94687432051 0.88129603863
          0.85651600361 0.96416866779 1.0237798691 0.88177746534 0.78728485107 0.83257216215
          0.85721647739 0.90509176254 0.96460044384 0.76184755564 0.94744318724 1.0236798525
          1.05377841 0.78756380081 0.91215735674 0.8340613842 0.80454784632 0.93286210299
          1.0032726526 0.83498573303 0.7224188447 0.77638834715 0.80552494526 0.86232179403
          0.93264055252 0.6917617321 0.9124981761 1.0026788712 1.0384941101 0.72139030695
          0.78188484907 0.6876257658 0.65316039324 0.80431950092 0.88919013739 0.6885393858
          0.55461972952 0.61744737625 0.65503060818 0.72061914206 0.80424368382 0.51534801722
          0.78250187635 0.88826882839 0.93020790815 0.55221360922 0.58871287107 0.48068594933
          0.44339933991 0.61182457209 0.70638251305 0.48171082139 0.33094865084 0.40115636587
          0.44671046734 0.51761358976 0.61189442873 0.28480672836 0.58972376585 0.70606702566
          0.75110119581 0.32724583149 0.38665646315 0.26915585995 0.22903822362 0.41086548567
          0.51372939348 0.27161037922 0.10837207735 0.1829328686 0.23453061283 0.30909249187
          0.4112829864 0.05724798888 0.38879624009 0.51300221682 0.56097197533 0.1029265672
          0.21063132584 0.080096967518 0.035109627992 0.23763731122 0.35137194395 0.082690522075
          -0.099721193314 -0.01612023823 0.041491754353 0.12428993732 0.23789843917 -0.15702328086
          0.21267925203 0.35030421615 0.40375593305 -0.10562247038 0.055187277496 -0.089741490781
          -0.13890719414 0.08519757539 0.21152475476 -0.088018015027 -0.29262003303 -0.19733370841
          -0.13493989408 -0.040544696152 0.086070463061 -0.3542740047 0.057762708515 0.21211710572
          0.27110105753 -0.29537832737 -0.083658874035 -0.2414034307 -0.29306203127 -0.051715277135
          0.085333354771 -0.24069397151 -0.46440455317 -0.35913148522 -0.29263314605 -0.18889665604
          -0.050664290786 -0.52952820063 -0.080892898142 0.087931871414 0.15093742311 -0.46367275715
          -0.19841560721 -0.36592918634 -0.41981941462 -0.16452623904 -0.01965438202 -0.36599695683
          -0.60581451654 -0.49183595181 -0.42183592916 -0.31022518873 -0.16326113045 -0.67405414581
          -0.19559079409 -0.01548910141 0.050418302417 -0.60203117132 -0.27871361375 -0.45700368285
          -0.51425135136 -0.24210998416 -0.087389163673 -0.45819589496 -0.7143086791 -0.59203308821
          -0.51836311817 -0.39813089371 -0.2409080863 -0.78690725565 -0.27573767304 -0.081931397319
          -0.011354813352 -0.70850980282 -0.32065680623 -0.51118987799 -0.57329666615 -0.2809060812
          -0.11562636495 -0.51174861193 -0.78489804268 -0.65486508608 -0.57592618465 -0.44795888662
          -0.2796369791 -0.86234271526 -0.31727036834 -0.1110688597 -0.03459462896 -0.78024041653
          -0.34285655618 -0.53988397121 -0.60488724709 -0.30167484283 -0.13005135953 -0.54008680582
          -0.82036572695 -0.68732589483 -0.60625946522 -0.47380614281 -0.30114677548 -0.90093123913
          -0.34120500088 -0.12758848071 -0.047403305769 -0.81794708967 -0.36472228169 -0.56030261517
          -0.62578994036 -0.32431825995 -0.1535333693 -0.56044447422 -0.83817380667 -0.70670282841
          -0.62628477812 -0.49477297068 -0.32389545441 -0.91871094704 -0.36430680752 -0.15308374166
          -0.072430737317 -0.83733403683 -0.39437311888 -0.59149122238 -0.6572638154 -0.35386288166
          -0.18193738163 -0.59118437767 -0.86906546354 -0.73790746927 -0.65675538778 -0.52576202154
          -0.35368427634 -0.94994360209 -0.39433318377 -0.18220569193 -0.10114270449 -0.86928480864
          0.13912117481 0.19176384807 0.17677545547 0.16998133063 0.13030137122 0.23935028911
          0.2784640789 0.23467099667 0.27033993602 0.20737247169 0.20102697611 0.26276242733
          0.24057716131 0.19613607228 0.1530918926 0.22498355806 0.16914652288 0.23006786406
          0.22179079056 0.11597828567 0.10895729065 0.1730235815 0.10235225409 -0.019552446902
          -0.013710415922 -0.021661037579 -0.040927771479 -0.038920015097 -0.037954762578 -0.056446999311
          -0.070420078933 -0.075601361692 -0.097666472197 -0.095838308334 -0.10816828161 -0.067197978497
          -0.032034963369 -0.029388247058 -0.038239579648 -0.051095496863 -0.047989051789 -0.046118348837
          -0.059371851385 -0.067109636962 -0.070779845119 -0.082424260676 -0.084603443742 -0.089394703507
          -0.066818341613 0.0081105791032 0.011409072205 0.0034212465398 -0.010894505307 -0.0065678497776
          -0.0072332420386 -0.01782277599 -0.026568410918 -0.02867670171 -0.039030991495 -0.040604908019
          -0.045407321304 -0.02654732205 0.036999952048 0.039035566151 0.03415941447 0.024107949808
          0.028637815267 0.027816165239 0.022037230432 0.013712810352 0.014869169332 0.006455806084
          0.007607548032 0.0039100544527 0.016492644325 0.02205584757 0.023383347318 0.023292994127
          0.019242549315 0.021061021835 0.021122448146 0.018963551149 0.013765466399 0.017094811425
          0.011660823599 0.018055856228 0.014176495373 0.019693404436 1.5562780231e-10 -1.6086756371e-09
          3.2319513732e-10 -9.79734089e-12 -5.4504338542e-11 -2.5523586716e-11 1.6072745565e-11 -6.2979168321e-13
          2.8978982571e-14 0 0 0 -1.8311278871e-13
        </DataArray>
        <DataArray type="Float32" Name="uy" format="ascii" RangeMin="-1.1034053564" RangeMax="0.81020277739">
          0.036266554147 0.048931505531 0.052531450987 -0.038950253278 -0.10425997525 -0.078437238932
          -0.084726452827 0.035738285631 0.045079436153 0.012078230269 -0.038157656789 -0.090807743371
          -0.10280599445 -0.074086435139 0.045498974621 0.011304371059 -0.095059007406 -0.077424906194
          0.055311113596 -0.021898893639 -0.062950588763 0.05276844278 -0.064632818103 -0.068136379123
          -0.024473678321 0.05438471958 -0.040463268757 -0.40381425619 -0.33649858832 -0.40551578999
          -0.41473680735 -0.35404220223 -0.41644150019 -0.31011006236 -0.33122158051 -0.35023489594
          -0.36805409193 -0.20092238486 -0.18136642873 -0.26731866598 -0.23214380443 -0.21363824606
          -0.29182118177 -0.13288724422 -0.17050436139 -0.26856714487 -0.29323425889 -0.22833123803
          -0.25791481137 -0.26526325941 -0.29003110528 -0.1369330287 -0.17514687777 -0.18897782266
          -0.22338178754 -0.26934212446 -0.29590117931 -0.35243681073 -0.36905494332 -0.3665060401
          -0.29061868787 -0.36784279346 -0.26099234819 -0.30680194497 -0.13811440766 -0.11816121638
          -0.2136837393 -0.062509387732 -0.21388606727 -0.16750499606 -0.21226556599 -0.06458966434
          -0.12129876763 -0.2128187716 -0.30864271522 -0.30008211732 -0.21758911014 -0.29990297556
          -0.18695896864 -0.23748576641 -0.053013723344 -0.031491473317 -0.134177953 0.028798948973
          -0.13556613028 -0.085271462798 -0.13211718202 0.027502439916 -0.035315204412 -0.13627594709
          -0.23570351303 -0.2191734463 -0.12681162357 -0.21779891849 -0.094073459506 -0.15028081834
          0.053070243448 0.07620857656 -0.035366296768 0.14280305803 -0.037246938795 0.017888085917
          -0.033236376941 0.14192409813 0.073126219213 -0.038404550403 -0.14605943859 -0.11781021953
          -0.014028738253 -0.11639854312 0.024099137634 -0.03957837075 0.19040556252 0.21538300812
          0.08891966939 0.29246762395 0.088194578886 0.15087977052 0.09032663703 0.29270967841
          0.21483579278 0.087619565427 -0.036160454154 0.010296009481 0.12326361239 0.01167423185
          0.16450878978 0.09475966543 0.34640681744 0.37322288752 0.23570330441 0.4574713707
          0.23470495641 0.30275127292 0.23646990955 0.4571288228 0.37149348855 0.23259556293
          0.097962662578 0.15128095448 0.26667207479 0.15130329132 0.30984169245 0.23747186363
          0.49768021703 0.52501642704 0.38226097822 0.61363959312 0.38198968768 0.45236173272
          0.38190150261 0.61238855124 0.52264130116 0.3789961338 0.23921975493 0.26597610116
          0.38316041231 0.2649730742 0.42771491408 0.35388582945 0.62043517828 0.64802408218
          0.50085645914 0.74068140984 0.50156015158 0.57377403975 0.49944269657 0.73931503296
          0.64526957273 0.49785649776 0.35347443819 0.32606244087 0.4455319047 0.32566094398
          0.49169564247 0.41593635082 0.68806558847 0.71498864889 0.56543856859 0.81020277739
          0.56671619415 0.64115089178 0.56267529726 0.80965167284 0.71451306343 0.56362432241
          0.41457480192 0.31614303589 0.43534442782 0.31650316715 0.4803352952 0.40465390682
          0.67608964443 0.70271342993 0.55412656069 0.79791069031 0.55488550663 0.62919789553
          0.5521453619 0.79783648252 0.70264220238 0.5519220233 0.40561005473 0.25202456117
          0.36771273613 0.25296005607 0.41066238284 0.33794265985 0.59964972734 0.62594330311
          0.48279863596 0.71705025434 0.48326539993 0.55446463823 0.481769979 0.71695542336
          0.62543326616 0.48029571772 0.34040266275 0.14000111818 0.25518447161 0.14110574126
          0.29766133428 0.22550845146 0.48601132631 0.51325428486 0.37003731728 0.60242503881
          0.36998438835 0.44055810571 0.37005680799 0.60162764788 0.51106232405 0.36685535312
          0.22832918167 -0.013332056813 0.10292876512 -0.01310664136 0.14676371217 0.073995046318
          0.33718678355 0.3658348918 0.22038947046 0.45510944724 0.21954219043 0.29096135497
          0.22004450858 0.45335063338 0.36148899794 0.2165569216 0.075093895197 -0.18659885228
          -0.069375149906 -0.18764169514 -0.024517290294 -0.097140543163 0.16646499932 0.19548025727
          0.048538297415 0.28517884016 0.04842466116 0.12030501664 0.048506539315 0.28261828423
          0.19100986421 0.046630561352 -0.098092190921 -0.36768552661 -0.25609439611 -0.36893355846
          -0.21277482808 -0.28196945786 -0.029783826321 -0.0015648985282 -0.14301103354 0.084157854319
          -0.14330509305 -0.074517339468 -0.14268650115 0.081769436598 -0.0064665856771 -0.14472667873
          -0.28367823362 -0.55945450068 -0.45405068994 -0.5596806407 -0.41398507357 -0.4788698256
          -0.24307222664 -0.21740695834 -0.34823846817 -0.13733831048 -0.34860110283 -0.28379029036
          -0.34833112359 -0.13820238411 -0.21895985305 -0.34903252125 -0.47910308838 -0.75406742096
          -0.65297156572 -0.75290966034 -0.61545735598 -0.67780816555 -0.45229125023 -0.42829689384
          -0.55214226246 -0.3518255949 -0.55310255289 -0.49061793089 -0.55101037025 -0.35117337108
          -0.42754465342 -0.55289810896 -0.67502820492 -0.93500345945 -0.83433634043 -0.93410629034
          -0.79653358459 -0.85789340734 -0.63560771942 -0.61220210791 -0.73480933905 -0.53635311127
          -0.7349177599 -0.67318713665 -0.73441332579 -0.53567802906 -0.61115050316 -0.73413568735
          -0.85730588436 -1.1034053564 -1.0032962561 -1.1032823324 -0.965095222 -1.0271105766
          -0.80433571339 -0.78112787008 -0.90373259783 -0.70492482185 -0.90380620956 -0.84197473526
          -0.90348666906 -0.70482468605 -0.78050136566 -0.90363264084 -1.0265623331 -0.31106853485
          -0.26826575398 -0.31105002761 -0.25283318758 -0.27938437462 -0.18015961349 -0.16793571413
          -0.22459055483 -0.13454158604 -0.22482484579 -0.19925899804 -0.22457399964 -0.13792099059
          -0.17460699379 -0.22860687971 -0.27881100774 -0.042529307306 -0.038835030049 -0.022141279653
          -0.06372204423 -0.052033971995 -0.022117517889 -0.040161114186 0.21574288607 0.21234452724
          0.21651594341 0.11251169443 0.12849205732 0.11332774907 0.21068941057 0.13419875503
          0.21153119206 0.12295096368 0.20410303771 0.200235039 0.20745261014 0.1617833972
          0.16484718025 0.14449763298 0.19868078828 0.1797798574 0.20852449536 0.14470840991
          0.20575496554 0.15501011908 0.20528805256 0.14324431121 0.19950789213 0.17963258922
          0.20209047198 0.16491983831 0.20619532466 0.14313437045 0.21239587665 0.12417053431
          -0.015808939934 0.014973352663 -0.014548813924 0.025945115834 0.0066131036729 0.07615172863
          0.083064295352 0.045629184693 0.1065043658 0.045571293682 0.063750043511 0.046167667955
          0.10698949546 0.08386516571 0.044833041728 0.0090234512463 -0.12888985872 -0.08950855583
          -0.12821751833 -0.074502125382 -0.098157055676 -0.01225254871 -0.0026575881056 -0.050389681011
          0.02573723346 -0.050341013819 -0.026535887271 -0.049344930798 0.026731519029 -0.0018375153886
          -0.049359180033 -0.097170643508 -0.21097889543 -0.16186085343 -0.21026058495 -0.14277945459
          -0.17266657948 -0.065490745008 -0.054744750261 -0.11407919228 -0.01728251949 -0.11352673918
          -0.082388840616 -0.11378008872 -0.0153524708 -0.050741001964 -0.11091065407 -0.17240248621
          -0.27207365632 -0.21267184615 -0.27014839649 -0.19053202868 -0.22732354701 -0.096811912954
          -0.084580771625 -0.15522283316 -0.038881264627 -0.15470537543 -0.11735057831 -0.15536418557
          -0.035779990256 -0.07930277288 -0.15260837972 -0.22528271377 -0.32328611612 -0.25227040052
          -0.31981432438 -0.22644753754 -0.27096948028 -0.11562393606 -0.10210624337 -0.18448331952
          -0.047511003911 -0.18390923738 -0.13951522112 -0.18488325179 -0.043076086789 -0.094145283103
          -0.18198595941 -0.26659357548 -0.37644866109 -0.29151514173 -0.37260371447 -0.26080143452
          -0.31423342228 -0.12791731954 -0.11147013307 -0.20982354879 -0.047639187425 -0.20955763757
          -0.15747994184 -0.20969001949 -0.04295264557 -0.10404707491 -0.20860372484 -0.30807626247
          -0.43188396096 -0.3302052021 -0.42858466506 -0.29356107116 -0.35691401362 -0.13232211769
          -0.11004707962 -0.23048712313 -0.035116557032 -0.23138849437 -0.16923630238 -0.22942353785
          -0.032431311905 -0.10612272471 -0.23087497056 -0.35076659918 -0.45635551214 -0.34378737211
          -0.45489120483 -0.30237647891 -0.37095603347 -0.12204378843 -0.094030700624 -0.2313773185
          -0.011421450414 -0.23303003609 -0.16491833329 -0.22915293276 -0.011718324386 -0.096140839159
          -0.23316809535 -0.36748304963 -0.44409933686 -0.32282423973 -0.44354656339 -0.27711501718
          -0.35093954206 -0.082843557 -0.051732316613 -0.20118783414 0.036804672331 -0.20263010263
          -0.12921789289 -0.19900031388 0.035119254142 -0.055820871145 -0.20252087712 -0.34958928823
          -0.40104109049 -0.26668488979 -0.40125697851 -0.21578022838 -0.29796102643 -0.00015052071831
          0.034380838275 -0.1314702034 0.13267573714 -0.13328266144 -0.051877927035 -0.12947528064
          0.13044182956 0.029188511893 -0.1332718879 -0.29685911536 -0.32016807795 -0.17155733705
          -0.32068049908 -0.11445010453 -0.20571061969 0.12640121579 0.16358619928 -0.022331573069
          0.27544635534 -0.022444618866 0.068675972521 -0.020842848346 0.27378168702 0.1601229459
          -0.022250119597 -0.20632383227 -0.21379560232 -0.053088493645 -0.21471790969 0.008935900405
          -0.090608328581 0.27052950859 0.30892914534 0.1083362177 0.4327301085 0.10850226134
          0.2082567066 0.10764766484 0.43198272586 0.30718159676 0.10799842328 -0.09263496846
          -0.12127664685 0.049132205546 -0.12331058085 0.11506420374 0.0090500479564 0.39458462596
          0.43516787887 0.22085551918 0.56881546974 0.22152787447 0.3274782896 0.21888637543
          0.56656336784 0.43198907375 0.21921189129 0.0057405345142 -0.085523530841 0.096787050366
          -0.087182685733 0.16698890924 0.053202074021 0.46717467904 0.51033681631 0.2804132998
          0.65415406227 0.28124022484 0.39550331235 0.27798071504 0.65285992622 0.50817632675
          0.27870211005 0.049925815314 -0.11506245285 0.079881846905 -0.11631023884 0.15484857559
          0.033044800162 0.47296127677 0.51831233501 0.27495113015 0.67090129852 0.27600991726
          0.3972890377 0.27287840843 0.67003673315 0.51739042997 0.27409303188 0.031010586768
          -0.19538754225 0.0066979322582 -0.19558154047 0.08366689086 -0.042094357312 0.4120965898
          0.45914959908 0.20855881274 0.61540395021 0.20904485881 0.33420151472 0.20766067505
          0.61510503292 0.45879331231 0.20761013031 -0.042306017131 -0.29070046544 -0.089181676507
          -0.29071331024 -0.012262186036 -0.13675756752 0.31448221207 0.36158618331 0.11213802546
          0.5163179636 0.11290634423 0.23741213977 0.11200619489 0.51641350985 0.36202391982
          0.11248675734 -0.13725188375 -0.39483889937 -0.19319145381 -0.39470344782 -0.1159774363
          -0.24062281847 0.20944680274 0.25656348467 0.0077856839634 0.41095641255 0.0084087420255
          0.13293656707 0.0076430519111 0.41126400232 0.25746014714 0.0086221816018 -0.24086371064
          0.24210344255 0.21792140603 0.24227146804 0.20977570117 0.22302745283 0.17941252887
          0.17143805325 0.19621776044 0.16168808937 0.19740393758 0.18643051386 0.19333072007
          0.16238771379 0.17333677411 0.19576558471 0.22138765454 0.061543829739 0.060326956213
          0.065450236201 0.056604266167 0.060138504952 0.066617153585 0.062405824661 -0.14326012135
          -0.1189134866 -0.096584543586 -0.08100490272 -0.12129610777 -0.163250193 -0.12229975313
          -0.079111024737 -0.12335333228 -0.094178572297 -0.15299236774 -0.1232213974 -0.16819579899
          -0.19076889753 -0.17231528461 -0.1565296948 -0.14847369492 -0.17561371624 -0.20561051369
          -0.17715294659 -0.14869464934 -0.17760798335 -0.1590116024 -0.19715790451 -0.17762866616
          -0.20868943632 -0.18333631754 -0.16640584171 -0.15085648 -0.14416199923 -0.16919228435
          -0.19629427791 -0.17054256797 -0.14636740088 -0.17093110085 -0.15558770299 -0.18670706451
          -0.17069873214 -0.19704034925 -0.11771593988 -0.10668563098 -0.096919462085 -0.092112720013
          -0.10786907375 -0.12433298677 -0.10827705264 -0.09350451827 -0.10878333449 -0.10003779829
          -0.11818978935 -0.10930102319 -0.1244372651 -0.037952505052 -0.036152549088 -0.033272065222
          -0.03037350066 -0.035022284836 -0.038452930748 -0.035496007651 -0.031759995967 -0.036891136318
          -0.036971446127 -0.041851721704 -0.041148215532 -0.040240623057 -4.0560506342e-11 2.5509348106e-11
          1.6107297787e-11 -1.8696676152e-11 2.1454366061e-12 2.6614646251e-11 -2.1906182922e-13 -1.5540800797e-13
          1.4747436535e-14 0 0 0 -1.1557858078e-13
        </DataArray>
        <DataArray type="Float32" Name="uz" format="ascii" RangeMin="-0.5750502944" RangeMax="0.29923135042">
          0.0081674065441 -0.0084272660315 0.00682012178 -0.053149174899 -0.1231168732 -0.11848891526
          -0.1344447881 -0.0099780587479 -0.026471367106 -0.049186084419 -0.07500039041 -0.15929862857
          -0.13924601674 -0.12711329758 0.028522547334 -0.0018610359402 -0.1129668802 -0.082480743527
          -0.025016127154 -0.093557372689 -0.13883063197 -0.039617132396 -0.15190850198 -0.10077217221
          -0.038144979626 0.02202700451 -0.063364312053 -0.35563856363 -0.36137217283 -0.36820164323
          -0.38024574518 -0.36602631211 -0.38733583689 -0.34795662761 -0.35195338726 -0.34147146344
          -0.36057466269 -0.35216906667 -0.36570248008 -0.36399790645 -0.32327011228 -0.32472705841
          -0.34918934107 -0.35217109323 -0.30165544152 -0.35363397002 -0.34358912706 -0.34190642834
          -0.32571616769 -0.37458646297 -0.35416007042 -0.33824580908 -0.29559069872 -0.33028021455
          -0.3083190918 -0.33161908388 -0.33319866657 -0.37567988038 -0.37835985422 -0.33606413007
          -0.3590759635 -0.35859304667 -0.34125348926 -0.32238176465 -0.3718097508 -0.3978805542
          -0.37826815248 -0.38407039642 -0.35967501998 -0.34866529703 -0.39679583907 -0.36044457555
          -0.33685058355 -0.32255125046 -0.38170900941 -0.32594272494 -0.36135798693 -0.35684463382
          -0.33787068725 -0.31061160564 -0.38529571891 -0.42079496384 -0.39034900069 -0.40536630154
          -0.36526623368 -0.35253977776 -0.41577231884 -0.37474992871 -0.34049150348 -0.31600987911
          -0.39146596193 -0.32720074058 -0.36983209848 -0.36648994684 -0.33965975046 -0.30596157908
          -0.39706414938 -0.44076487422 -0.40515384078 -0.42016598582 -0.37377038598 -0.35666078329
          -0.43630459905 -0.38175168633 -0.33953785896 -0.31069386005 -0.40832671523 -0.3360837996
          -0.38271898031 -0.38368546963 -0.34449854493 -0.3063737154 -0.4057161212 -0.45756399632
          -0.42032161355 -0.42789795995 -0.3824211061 -0.35860177875 -0.45861443877 -0.38071376085
          -0.33412504196 -0.30567508936 -0.43016901612 -0.3473880887 -0.39302146435 -0.39839491248
          -0.35047206283 -0.31236028671 -0.40951496363 -0.46597036719 -0.42976656556 -0.43029016256
          -0.38861745596 -0.36056187749 -0.47163930535 -0.37893423438 -0.33136472106 -0.30621293187
          -0.44548380375 -0.35798421502 -0.39922645688 -0.40431022644 -0.36131811142 -0.32664564252
          -0.41471576691 -0.46497914195 -0.43272712827 -0.43283510208 -0.3956464529 -0.37052497268
          -0.47039043903 -0.38642171025 -0.34389844537 -0.32136195898 -0.44704845548 -0.36242121458
          -0.3971209228 -0.39404952526 -0.37337747216 -0.34543982148 -0.42007279396 -0.45642083883
          -0.42618483305 -0.43908905983 -0.40089216828 -0.38744136691 -0.45230323076 -0.40704417229
          -0.37248966098 -0.34949544072 -0.42844045162 -0.36762061715 -0.39035397768 -0.37703076005
          -0.38748374581 -0.37136781216 -0.42073464394 -0.43433505297 -0.41067841649 -0.43850830197
          -0.40316483378 -0.4065092206 -0.41849905252 -0.4295988977 -0.41055563092 -0.38796925545
          -0.39652195573 -0.38256376982 -0.38725453615 -0.36833569407 -0.40513208508 -0.40543928742
          -0.41655495763 -0.40453463793 -0.39407989383 -0.4279345572 -0.40511181951 -0.42362508178
          -0.38200068474 -0.44246760011 -0.44282442331 -0.42831131816 -0.36847287416 -0.40355712175
          -0.39010185003 -0.37151217461 -0.42380163074 -0.43875280023 -0.41208034754 -0.37987330556
          -0.38300147653 -0.41494938731 -0.40942195058 -0.43773657084 -0.35670202971 -0.44780176878
          -0.46575018764 -0.46249574423 -0.35393989086 -0.42146402597 -0.39538305998 -0.37568473816