<VTKFile type="UnstructuredGrid" version="1.0" byte_order="LittleEndian" header_type="UInt64">
  <UnstructuredGrid>
    <Piece NumberOfPoints="791" NumberOfCells="973">
      <PointData>
        <DataArray type="Float32" Name="ux" format="ascii" RangeMin="-6.8041292252e-05" RangeMax="0.11321473122">
          0.0096190180629 0.01066001039 0.010729179718 0.0094070117921 0.0095793008804 0.010605027899
          0.010707501322 0.0099180163816 0.01091675926 0.01029530447 0.0098043223843 0.010918651707
          0.0099251512438 0.010357956402 0.0098730018362 0.0095302090049 0.0098267504945 0.0094359666109
          0.011681758799 0.010856703855 0.011795785278 0.011993564665 0.012085181661 0.010766651481
          0.0097914598882 0.010886669159 0.0095046907663 0.020969565958 0.021718345582 0.021993132308
          0.016893571243 0.017654823139 0.017923738807 0.020830336958 0.01676421985 0.020161930472
          0.016095494851 0.021697504446 0.022647956386 0.022232465446 0.017635101452 0.018567064777
          0.018167963251 0.021915210411 0.017844643444 0.021467739716 0.017406467348 0.020861933008
          0.016808521003 0.022992935032 0.018920971081 0.021040728316 0.017000116408 0.020282838494
          0.016252541915 0.019920896739 0.015869960189 0.022769547999 0.018698465079 0.025321472436
          0.026063589379 0.026330633089 0.025185141712 0.024527357891 0.026045650244 0.026990124956
          0.026574430987 0.026263045147 0.025816824287 0.025216957554 0.027327137068 0.025392251089
          0.024642359465 0.024287406355 0.027099087834 0.02992990613 0.030663769692 0.030926775187
          0.029793037102 0.029142834246 0.030647549778 0.031594403088 0.031174134463 0.030865572393
          0.0304195676 0.029820486903 0.031925480813 0.029991360381 0.029243737459 0.028897924349
          0.031691469252 0.034756090492 0.035484503955 0.035742241889 0.034620750695 0.03397731483
          0.035471495241 0.036418069154 0.035994883627 0.035690005869 0.035243332386 0.03464589268
          0.036743432283 0.034813329577 0.034068454057 0.033730082214 0.036503817886 0.039754521102
          0.040481857955 0.040736164898 0.039618786424 0.038978300989 0.040470588952 0.041425246745
          0.040995560586 0.040690179914 0.040241483599 0.039640903473 0.041747406125 0.039804045111
          0.039057835937 0.038726110011 0.041500449181 0.044878151268 0.045605391264 0.045856948942
          0.044741857797 0.044103119522 0.045594703406 0.046559091657 0.046122431755 0.045816399157
          0.045364841819 0.044760342687 0.046878721565 0.044919963926 0.044171188027 0.043845541775
          0.046623777598 0.050074521452 0.050802797079 0.051051635295 0.049937427044 0.049299404025
          0.050793915987 0.051770184189 0.051325149834 0.051018517464 0.050562441349 0.049952633679
          0.052087638527 0.050109364092 0.049355808645 0.049035303295 0.051823668182 0.055291630328
          0.056026037782 0.056274008006 0.055152568966 0.054511103779 0.056020032614 0.057013910264
          0.056557223201 0.056249320507 0.055784653872 0.055165346712 0.05732993409 0.055320523679
          0.054556477815 0.054238699377 0.057055253536 0.060493707657 0.061233792454 0.061481326818
          0.06035175547 0.059706177562 0.061229493469 0.062241561711 0.061773281544 0.061463546008
          0.060990326107 0.060361467302 0.062556937337 0.060515854508 0.059740208089 0.059424825013
          0.062272258103 0.065664462745 0.066407456994 0.066654674709 0.065520383418 0.064873047173
          0.066404215991 0.06742901355 0.066952243447 0.066641844809 0.066162109375 0.065527267754
          0.067742876709 0.065680533648 0.064898177981 0.064585484564 0.067450724542 0.070784561336
          0.07153043896 0.071777425706 0.07063858211 0.069989152253 0.071529589593 0.072564952075
          0.072080656886 0.071770563722 0.071284554899 0.070643976331 0.072877176106 0.070797309279
          0.070006780326 0.069695599377 0.072578795254 0.075847275555 0.076597519219 0.076846525073
          0.07569783926 0.075043864548 0.0765972808 0.077645741403 0.077153347433 0.076842926443
          0.076349690557 0.07570181787 0.077958397567 0.075856529176 0.075056299567 0.074744082987
          0.077654413879 0.080875083804 0.081628724933 0.081879578531 0.080722689629 0.08006503433
          0.08162753284 0.082684263587 0.082187697291 0.081875786185 0.081378430128 0.080725036561
          0.082997128367 0.080880433321 0.080073356628 0.079760454595 0.082690812647 0.08588951081
          0.086644358933 0.086895704269 0.085735835135 0.085077017546 0.086643628776 0.087704204023
          0.087204821408 0.086893431842 0.086393296719 0.085737377405 0.088016748428 0.085893526673
          0.085082963109 0.084770105779 0.087708719075 0.090896874666 0.091654457152 0.091906934977
          0.090742334723 0.09008089453 0.091654479504 0.092719733715 0.092217579484 0.091905750334
          0.091402329504 0.09074408561 0.093032889068 0.090901263058 0.090086810291 0.089772582054
          0.092723123729 0.09590613842 0.096666686237 0.096920594573 0.095750421286 0.095086477697
          0.096667103469 0.09773761034 0.097232624888 0.096920244396 0.096413768828 0.095752097666
          0.098051130772 0.09591050446 0.095091164112 0.094775959849 0.097740054131 0.10093473643
          0.10169854015 0.10195391625 0.10077708215 0.10011022538 0.10169891268 0.10277613997
          0.10226768255 0.10195388645 0.10144394636 0.10077814758 0.10309142619 0.10093658417
          0.10011230409 0.099796317518 0.1027777046 0.10598415881 0.10675174743 0.10700833052
          0.10582581162 0.1051555872 0.10675224662 0.10783612728 0.10732424259 0.10700901598
          0.10649588704 0.1058260873 0.10815212876 0.10598497838 0.10515627265 0.10483940691
          0.10783604532 0.11104344577 0.11181251705 0.11206881702 0.11088508368 0.11021430045
          0.11181263626 0.11289835721 0.11238571256 0.11206914485 0.11155626923 0.11088515818
          0.11321473122 0.11104366928 0.11021456122 0.10989765823 0.11289811134 0.011871369556
          0.0130502088 0.012632959522 0.012598596513 0.011702846736 0.01425067801 0.0151404934
          0.014065159485 0.015024937689 0.013465547003 0.013360750861 0.014664831571 0.014340997674
          0.013286883011 0.012259753421 0.013726147823 0.01240812242 0.013035380282 0.013379901648
          0.011440198869 0.011703004129 0.012968101539 0.011974641122 0.017094874755 0.016842551529
          0.01674621366 0.020604969934 0.020354602486 0.02026309073 0.017106456682 0.020616441965
          0.017318997532 0.020836241543 0.016874402761 0.016682036221 0.016715606675 0.020377485082
          0.020155386999 0.020218264312 0.016862573102 0.020347403362 0.016919894144 0.020429309458
          0.017062680796 0.020580375567 0.016513487324 0.020004319027 0.016999669373 0.020523587242
          0.017157828435 0.020700011402 0.017317619175 0.020843636245 0.016516024247 0.020021455362
          0.024252234027 0.024008419365 0.023919541389 0.024265971035 0.024477560073 0.024029565975
          0.023808201775 0.023873576894 0.02399828285 0.024081518874 0.024231947958 0.02366451174
          0.024177359417 0.024352906272 0.024490684271 0.023685313761 0.028029862791 0.027791496366
          0.027705268934 0.028047427535 0.028255492449 0.02780982852 0.027579125017 0.027654536068
          0.027773220092 0.027864059433 0.028018031269 0.027443123981 0.027964526787 0.028146915138
          0.02827828005 0.027472773567 0.031907115132 0.031674027443 0.03158986941 0.031929630786
          0.032133359462 0.031689524651 0.031449496746 0.031534407288 0.031647149473 0.031746409833
          0.031904805452 0.03132205829 0.031852077693 0.032041791826 0.032166011631 0.031359598041
          0.035851448774 0.035622723401 0.03554051742 0.035878840834 0.036079045385 0.035635441542
          0.03538331762 0.035479679704 0.035587068647 0.03569515422 0.035859119147 0.035263888538
          0.035807784647 0.036005698144 0.03612274304 0.03531087935 0.039834748954 0.039609510452
          0.03952948004 0.039865851402 0.040063004941 0.039618927985 0.039356656373 0.039462860674
          0.039565481246 0.039681445807 0.039850007743 0.039243746549 0.039799865335 0.040005400777
          0.040116932243 0.03929958865 0.043844103813 0.043618395925 0.043538697064 0.043879430741
          0.044077195227 0.043626576662 0.043350610882 0.043466940522 0.043568234891 0.043691720814
          0.043867066503 0.043241366744 0.043817549944 0.044032134116 0.04414010793 0.043305039406
          0.047864686698 0.047638427466 0.047559507191 0.047902315855 0.048100601882 0.04764553532
          0.047360219061 0.047483593225 0.047583803535 0.047712739557 0.047893062234 0.047254554927
          0.047844525427 0.048064921051 0.04817006737 0.047323979437 0.051893644035 0.051667101681
          0.051589231938 0.051932774484 0.052130933851 0.05167253688 0.051380757242 0.05150949955
          0.051608007401 0.051741208881 0.051924992353 0.05127786845 0.051876690239 0.052102241665
          0.052205201238 0.051352240145 0.0559370704 0.05570839718 0.055630788207 0.055977523327
          0.056177210063 0.055711679161 0.055411275476 0.055546537042 0.055643964559 0.055783230811
          0.055971045047 0.055309679359 0.055922012776 0.056153420359 0.056255463511 0.05538931489
          0.059989839792 0.059758853167 0.059680264443 0.060032740235 0.060234736651 0.059761997312
          0.059452842921 0.059593394399 0.059691395611 0.059834834188 0.060027997941 0.059351626784
          0.059979531914 0.06021739915 0.060318492353 0.059435587376 0.064041934907 0.063810102642
          0.063732005656 0.064086437225 0.064289219677 0.063813380897 0.063499107957 0.063643150032
          0.063741318882 0.063887014985 0.064083054662 0.06339892745 0.064035058022 0.064276225865
          0.064376197755 0.063485324383 0.068101130426 0.067869566381 0.067791879177 0.068145677447
          0.068347938359 0.067871332169 0.067554779351 0.067701138556 0.067798212171 0.067945934832
          0.068142965436 0.067456200719 0.06809438765 0.068337365985 0.068436183035 0.067544832826
          0.072168074548 0.071937441826 0.071860030293 0.072213292122 0.072415098548 0.071938566864
          0.071619980037 0.071768164635 0.071864023805 0.072013735771 0.072211511433 0.071522735059
          0.072163261473 0.072407692671 0.072505176067 0.071613363922 0.076241254807 0.076013736427
          0.075937882066 0.076286382973 0.076485022902 0.076014101505 0.075697094202 0.075845621526
          0.075939677656 0.07608909905 0.076285049319 0.075602330267 0.07623770088 0.076480254531
          0.076575703919 0.075693525374 0.080310337245 0.080087028444 0.080012954772 0.08035505563
          0.080549955368 0.080086633563 0.07977514714 0.079921752214 0.080013230443 0.080160699785
          0.08035364002 0.079683065414 0.080307036638 0.080545946956 0.080639183521 0.079773172736
          0.084381200373 0.08416095376 0.084087915719 0.084425352514 0.084617175162 0.084159977734
          0.083851382136 0.08399707824 0.084086894989 0.0842333287 0.084424048662 0.083760753274
          0.084377795458 0.084614165127 0.084706045687 0.083850502968 0.088455162942 0.088235653937
          0.088162913918 0.088499650359 0.088691137731 0.088235206902 0.0879271999 0.08807233721
          0.088162228465 0.088308304548 0.088498696685 0.087836608291 0.088453121483 0.08868920058
          0.088780038059 0.087926529348 0.092531211674 0.092311568558 0.092238143086 0.092576190829
          0.092768386006 0.092311307788 0.092001982033 0.092147916555 0.092238172889 0.092384368181
          0.092575788498 0.091911181808 0.092530161142 0.092767268419 0.092858172953 0.092001639307
          0.012289642356 0.012812174857 0.012240838259 0.013061936945 0.012771791779 0.013929983601
          0.01407324709 0.013352211565 0.014508808963 0.013378019445 0.013728896156 0.013321785256
          0.014469348826 0.014047507197 0.013420647942 0.012608751655 0.012370045297 0.012932695448
          0.013296596706 0.011435473338 0.011736661196 0.012959322892 0.012024627067 0.0069860224612
          0.0068416106515 0.0065702339634 0.0064885728061 0.0066136866808 0.0067197112367 0.0064613455907
          0.0064710038714 0.006302586291 0.0063299601898 0.0059172520414 0.0060322731733 0.0062392842956
          0.0044328570366 0.0043079415336 0.0040730223991 0.0040228543803 0.0041198744439 0.0042174910195
          0.0040016463026 0.0040252842009 0.0038809711114 0.0039315102622 0.0035709100775 0.0036889682524
          0.0038303590845 0.0025419371668 0.0023862021044 0.0021581184119 0.0021587016527 0.0022543054074
          0.0023663565516 0.0021688668057 0.0022279717959 0.0020804728847 0.0021780482493 0.0017927172594
          0.0019360496663 0.0020182593726 0.0012288264697 0.0010669002077 0.00085995305562 0.00089370255591
          0.00098112749401 0.0010942304507 0.0009250396979 0.0010025009979 0.0008662303444 0.00098855933174
          0.00061918393476 0.00077012745896 0.00080122984946 0.00050466478569 0.00028470600955 5.1152070228e-05
          0.00014740809274 0.00024538248545 0.00039423425915 0.0002177269198 0.00034691070323 0.00018756078498
          0.00038395720185 -6.8041292252e-05 0.00013685518934 0.00010232723434 0 0
          0 0 0 0 0 0
          0 0 0 0 0
        </DataArray>
        <DataArray type="Float32" Name="uy" format="ascii" RangeMin="0" RangeMax="1.081781745">
          0.095372527838 0.10367783159 0.10693590343 0.093494713306 0.094420194626 0.10606604069
          0.10278423131 0.095383234322 0.10179041326 0.096787109971 0.093518353999 0.10088093579
          0.094441227615 0.096201047301 0.10182508826 0.096794575453 0.10087753087 0.096195071936
          0.1122821942 0.10065531731 0.11148174107 0.11236634851 0.1115604341 0.11154631525
          0.10068009049 0.11236707121 0.092475369573 0.207044065 0.20780846477 0.20705725253
          0.16758061945 0.16836731136 0.16758961976 0.20810101926 0.16866599023 0.20766702294
          0.16821363568 0.20925727487 0.20945897698 0.20856457949 0.16983108222 0.17004989088
          0.16913728416 0.20994593203 0.17052331567 0.20854535699 0.16911846399 0.209004879
          0.16958332062 0.20861935616 0.16919606924 0.20996253192 0.17054080963 0.20948316157
          0.1700783819 0.20861911774 0.16919696331 0.20768980682 0.16823406518 0.2480225116
          0.24878187478 0.24803310633 0.24907173216 0.24863609672 0.25022530556 0.25042450428
          0.24953252077 0.25091555715 0.24951511621 0.2499717325 0.24958086014 0.25093016028
          0.25044628978 0.24958109856 0.24865506589 0.2903803587 0.29113066196 0.29038885236
          0.29141870141 0.29098492861 0.29256787896 0.29276314378 0.29187452793 0.29325780272
          0.29185974598 0.29231324792 0.29191768169 0.29327049851 0.29278197885 0.29191911221
          0.2910002172 0.33395978808 0.3347029686 0.33396655321 0.3349879384 0.33455583453
          0.33613350987 0.33632621169 0.33544120193 0.33682382107 0.33542740345 0.33587741852
          0.33547997475 0.3368344903 0.33634129167 0.33548003435 0.33456858993 0.3786291182
          0.37936994433 0.37863385677 0.3796543777 0.37922105193 0.38080433011 0.38099554181
          0.38010719419 0.38150030375 0.38009500504 0.38054478168 0.38014170527 0.38150799274
          0.38100659847 0.38014155626 0.37923052907 0.42426714301 0.42500653863 0.4242695272
          0.42529171705 0.42485585809 0.42644774914 0.42663747072 0.42574420571 0.42715024948
          0.42573413253 0.42618447542 0.42577326298 0.42715531588 0.42664411664 0.42577403784
          0.42486065626 0.4707300365 0.47146975994 0.47072988749 0.47175598145 0.47131639719
          0.47292119265 0.47310957313 0.47220945358 0.47363200784 0.47220146656 0.47265377641
          0.47223350406 0.47363469005 0.47311285138 0.47223436832 0.47131693363 0.51786333323
          0.51860821247 0.51786184311 0.51889628172 0.51845026016 0.52007728815 0.52026450634
          0.51935380697 0.5208004117 0.51934731007 0.51980388165 0.51937234402 0.52080148458
          0.52026563883 0.51937347651 0.51844841242 0.56552529335 0.56627690792 0.56552261114
          0.56656742096 0.56611359119 0.56776714325 0.5679538846 0.56703037024 0.56850367785
          0.56702560186 0.56748765707 0.56704384089 0.56850343943 0.56795328856 0.56704491377
          0.56611019373 0.61358946562 0.6143437624 0.61358571053 0.61463594437 0.61417788267
          0.61584532261 0.61603069305 0.61510008574 0.61659038067 0.61509746313 0.61556237936
          0.61510926485 0.61658871174 0.61602890491 0.61511206627 0.61417138577 0.66193270683
          0.66269087791 0.66192907095 0.66298353672 0.66252082586 0.66420400143 0.66438895464
          0.66345119476 0.66495710611 0.6634491086 0.66391736269 0.66345751286 0.66495555639
          0.66438633204 0.66345918179 0.66251504421 0.71046155691 0.71122676134 0.7104588747
          0.71152204275 0.71105283499 0.71275687218 0.71294128895 0.71199429035 0.71351897717
          0.71199309826 0.71246641874 0.71199810505 0.71351790428 0.71294021606 0.71200054884
          0.71104764938 0.75911974907 0.75989025831 0.75911819935 0.76018673182 0.75971311331
          0.76143008471 0.76161360741 0.760661304 0.76219797134 0.76066118479 0.76113808155
          0.76066368818 0.76219809055 0.76161527634 0.76066714525 0.75970929861 0.80786722898
          0.80863952637 0.80786597729 0.80893605947 0.80846047401 0.81018340588 0.81036674976
          0.80941236019 0.81095391512 0.80941218138 0.80989003181 0.80941408873 0.81095433235
          0.81036835909 0.80941653252 0.80845808983 0.85667866468 0.85745483637 0.85667788982
          0.85775226355 0.85727393627 0.85900580883 0.85918927193 0.85823088884 0.85977983475
          0.85823088884 0.85871100426 0.85823208094 0.85978031158 0.85919123888 0.85823428631
          0.85727220774 0.90554213524 0.90632200241 0.90554225445 0.90662020445 0.90613931417
          0.90787905455 0.9080632329 0.90710145235 0.90865647793 0.90710139275 0.90758293867
          0.907102108 0.90865755081 0.90806514025 0.9071034193 0.90613913536 0.95443922281
          0.95522326231 0.95443969965 0.95552253723 0.95503848791 0.95678967237 0.95697462559
          0.95600694418 0.95757228136 0.95600670576 0.95649117231 0.95600783825 0.95757323503
          0.95697587729 0.95600795746 0.95503944159 1.0033591986 1.0041472912 1.0033595562
          1.0044481754 1.0039616823 1.0057222843 1.0059082508 1.0049350262 1.0065094233
          1.004934907 1.0054216385 1.004935503 1.0065100193 1.0059088469 1.0049356222
          1.0039618015 1.0522930622 1.053081274 1.052292943 1.0533826351 1.0528954268
          1.0546574593 1.0548434258 1.0538694859 1.0554460287 1.0538697243 1.0543566942
          1.0538692474 1.0554461479 1.054844141 1.0538699627 1.052895546 0.11728904396
          0.12398906797 0.11729495227 0.12652607262 0.12242309004 0.13707067072 0.13866141438
          0.13058714569 0.14355833828 0.13056607544 0.13461144269 0.13063216209 0.14357490838
          0.13869251311 0.13063874841 0.12245183438 0.12028624117 0.12237933278 0.12913142145
          0.11146044731 0.11692141742 0.12913927436 0.12238764763 0.17326451838 0.1735150069
          0.1732570231 0.21378141642 0.21400387585 0.21377323568 0.1736164242 0.21410220861
          0.17350575328 0.21401207149 0.17391623557 0.17403176427 0.17376042902 0.21439394355
          0.21448989213 0.21423484385 0.17407901585 0.21455445886 0.17373612523 0.2142124176
          0.17386563122 0.21433785558 0.17382659018 0.21429730952 0.17407383025 0.21454884112
          0.17402210832 0.214475438 0.17382137477 0.21429227293 0.17350073159 0.21400293708
          0.25597369671 0.25619852543 0.25596612692 0.25629544258 0.25619718432 0.25659430027
          0.25668644905 0.25642889738 0.25676223636 0.25640907884 0.25653642416 0.25648316741
          0.25675755739 0.25667569041 0.25648024678 0.25618869066 0.29969090223 0.29991275072
          0.29968476295 0.30000704527 0.29990577698 0.30031040311 0.30039608479 0.30013972521
          0.30048215389 0.30012258887 0.3002499342 0.30018702149 0.30047860742 0.30038762093
          0.30018475652 0.29989904165 0.34473988414 0.34496119618 0.344735533 0.34505295753
          0.34494641423 0.34536224604 0.34544226527 0.34518551826 0.34554055333 0.34517094493
          0.3452988863 0.34522593021 0.34553802013 0.34543603659 0.34522333741 0.3449420929
          0.39090627432 0.39112707973 0.39090323448 0.39121720195 0.39110532403 0.39153456688
          0.39160874486 0.39134997129 0.39172050357 0.3913384974 0.39146751165 0.39138239622
          0.39171892405 0.39160433412 0.3913807869 0.39110195637 0.43797284365 0.43819409609
          0.4379709661 0.43828251958 0.43816459179 0.43860930204 0.43867856264 0.43841710687
          0.43880233169 0.43840745091 0.43853849173 0.43844276667 0.43880161643 0.438675493
          0.43844029307 0.43816375732 0.48573517799 0.48596018553 0.48573422432 0.48604896665
          0.48592463136 0.48638808727 0.48645412922 0.48618647456 0.4865899384 0.48617872596
          0.48631295562 0.4862062335 0.48658922315 0.48645189404 0.48620417714 0.48592451215
          0.53404867649 0.53427535295 0.53404802084 0.5343644619 0.53423601389 0.53471064568
          0.53477412462 0.53450232744 0.53491872549 0.53449672461 0.53463315964 0.53451830149
          0.53491866589 0.53477329016 0.53451752663 0.53423565626 0.58280313015 0.58303070068
          0.58280265331 0.58311975002 0.58298808336 0.58347153664 0.58353304863 0.58325868845
          0.58368426561 0.58325409889 0.58339214325 0.5832708478 0.58368456364 0.58353286982
          0.58327078819 0.58298784494 0.63190287352 0.63213294744 0.63190197945 0.63222277164
          0.63208794594 0.63258272409 0.63264358044 0.63236403465 0.63280171156 0.63236045837
          0.63250052929 0.6323735714 0.63280171156 0.63264298439 0.63237339258 0.63208705187
          0.68127310276 0.6815071702 0.68127274513 0.6815982461 0.68145912886 0.6819679141
          0.68202793598 0.6817420125 0.68219351768 0.68173950911 0.68188309669 0.6817497015
          0.68219405413 0.68202883005 0.68175059557 0.68145895004 0.73086720705 0.73110300303
          0.73086702824 0.73119449615 0.73105293512 0.73156863451 0.73162776232 0.73133897781
          0.73179757595 0.73133736849 0.73148238659 0.7313451767 0.73179805279 0.7316287756
          0.73134613037 0.7310526371 0.78063666821 0.7808714509 0.78063607216 0.78096240759
          0.78082084656 0.78133773804 0.78139650822 0.78110700846 0.78156864643 0.78110557795
          0.78125071526 0.78111153841 0.78156882524 0.78139692545 0.78111249208 0.78081989288
          0.83053743839 0.8307723403 0.83053678274 0.83086335659 0.83072066307 0.83124047518
          0.83129817247 0.83100783825 0.83147287369 0.83100712299 0.83115279675 0.8310110569
          0.83147323132 0.83129864931 0.8310123682 0.83071905375 0.88053631783 0.88076865673
          0.88053572178 0.88085830212 0.88071608543 0.88123232126 0.88128805161 0.88100123405
          0.88146287203 0.88100111485 0.88114494085 0.88100296259 0.88146322966 0.88128906488
          0.88100409508 0.88071477413 0.93058627844 0.93081402779 0.93058586121 0.93090188503
          0.93076193333 0.93126797676 0.93132168055 0.93104147911 0.93149369955 0.93104159832
          0.93118226528 0.9310426712 0.93149453402 0.93132352829 0.93104410172 0.93076097965
          0.98066645861 0.98089134693 0.98066616058 0.98097765446 0.98083943129 0.98134028912
          0.98139375448 0.98111641407 0.98156410456 0.98111593723 0.98125493526 0.98111718893
          0.98156446218 0.98139435053 0.98111754656 0.98083865643 1.0307722092 1.0309972763
          1.0307719707 1.0310829878 1.0309442282 1.0314457417 1.0314986706 1.0312218666
          1.0316692591 1.0312216282 1.0313601494 1.0312223434 1.0316692591 1.0314990282
          1.0312219858 1.030944109 1.0808796883 1.0811055899 1.0808796883 1.0811918974
          1.0810524225 1.081556797 1.0816099644 1.0813313723 1.0817816257 1.0813314915
          1.0814707279 1.0813312531 1.081781745 1.081609726 1.0813311338 1.0810520649
          0.12092930079 0.12731690705 0.12091574073 0.12974457443 0.125843063 0.13977576792
          0.14131751657 0.13361337781 0.14595142007 0.1335862875 0.13743185997 0.13366782665
          0.14594310522 0.14130863547 0.13366779685 0.125845626 0.1210102886 0.12309337407
          0.12978170812 0.11226844043 0.11767926067 0.12977614999 0.12308906764 0.061818163842
          0.06207594648 0.062260605395 0.062243241817 0.061982683837 0.061490293592 0.061961486936
          0.062268029898 0.061987198889 0.062293428928 0.06177874282 0.06206651032 0.061471607536
          0.038150258362 0.0384218283 0.038479376584 0.038384109735 0.038202814758 0.037816390395
          0.038163512945 0.038405224681 0.038202881813 0.038516372442 0.038119193166 0.038426607847
          0.037795919925 0.020656792447 0.02086299099 0.020883563906 0.020758535713 0.020665163174
          0.020352808759 0.020627055317 0.020781558007 0.020665995777 0.020922319964 0.020620170981
          0.020864160731 0.020330868661 0.0088301347569 0.0089900484309 0.0089676585048 0.0088194506243
          0.0087978802621 0.0085601881146 0.0087606143206 0.0088413385674 0.00879835058 0.0090046366677
          0.0087955202907 0.0089916111901 0.0085389465094 0.0022322381847 0.0023700711317 0.0022732091602
          0.0020506074652 0.002118878765 0.0019380060257 0.0020707824733 0.0020769250114 0.0021181297489
          0.0023163103033 0.0021858664695 0.0023685882334 0.0019106969703 0 0
          0 0 0 0 0 0
          0 0 0 0 0
        </DataArray>
        <DataArray type="Float32" Name="uz" format="ascii" RangeMin="-0.033247470856" RangeMax="0.033704258502">
          0.0063530253246 -0.0014072433114 0.008715685457 0.0060092783533 0.0034141722135 0.0060776495375
          -0.0041339197196 -0.00339443353 -0.014904150739 -0.011851809919 -0.0059669148177 -0.017691949382
          -0.0063122701831 -0.013645510189 0.017779506743 0.013693734072 0.014866895974 0.011870194227
          -0.0080446703359 -0.015951389447 -0.010391416959 -0.017338173464 -0.019647000358 0.017313348129
          0.016009425744 0.019780056551 3.463122539e-06 -0.0010774015682 -0.01043077372 -0.015053370036
          -0.0012042078888 -0.010225335136 -0.014623246156 0.0026317667216 0.0023251315579 0.011087263003
          0.010456978343 -0.0081845642999 -0.022720010951 -0.017115479335 -0.0081218490377 -0.022049928084
          -0.016676127911 -0.010556058958 -0.010416062549 -0.0058152931742 -0.0058190557174 0.0040232418105
          0.0035985142458 -0.028425155208 -0.02752065286 0.0034234607592 0.0029453202151 0.013870691881
          0.012993387878 0.016793396324 0.015887841582 -0.025496143848 -0.024686766788 -0.00096644845325
          -0.010627607815 -0.015444939025 0.0029239705764 0.011662513018 -0.0082340901718 -0.023285716772
          -0.017523255199 -0.010657363571 -0.0058115446009 0.0044033280574 -0.029239868745 0.0038225480821
          0.014623454772 0.017617138103 -0.026243709028 -0.00086129829288 -0.010798505507 -0.015793306753
          0.0031858948059 0.012181856669 -0.0082788467407 -0.023793842643 -0.017884099856 -0.010751345195
          -0.0058066179045 0.0047431434505 -0.029966684058 0.0041800299659 0.015297753736 0.018353238702
          -0.026909859851 -0.00075881759403 -0.010946379974 -0.016094595194 0.0034236693755 0.012650585733
          -0.008321496658 -0.024251870811 -0.018205756322 -0.010841665789 -0.0058007752523 0.0050460472703
          -0.030615022406 0.004493673332 0.015897680074 0.019012371078 -0.027498120442 -0.00065434846329
          -0.011071234941 -0.01635027118 0.0036395033821 0.013077417389 -0.008366169408 -0.024668658152
          -0.018491495401 -0.010936972685 -0.0057955863886 0.0053115510382 -0.031192135066 0.0047586541623
          0.016423465684 0.019599849358 -0.028013924137 -0.0005468884483 -0.011171350256 -0.0165551994
          0.0038321211468 0.013458435424 -0.0084133297205 -0.025040525943 -0.018739467487 -0.01103578601
          -0.0057908860035 0.0055366288871 -0.031693302095 0.004972234834 0.016869805753 0.020109966397
          -0.028451258317 -0.00043755225488 -0.011245490052 -0.016707846895 0.0039999927394 0.013789693825
          -0.0084611913189 -0.025362361223 -0.018946703523 -0.011135767214 -0.0057864775881 0.0057208850048
          -0.032112397254 0.005134311039 0.017233831808 0.020538646728 -0.028805505484 -0.00032935917261
          -0.011294938624 -0.016810821369 0.0041423831135 0.014069532044 -0.0085071362555 -0.025631757453
          -0.019112860784 -0.011233336292 -0.0057815979235 0.0058654211462 -0.032448928803 0.0052478988655
          0.017516760156 0.020885275677 -0.029078662395 -0.00022953716689 -0.011322644539 -0.016872018576
          0.0042584175244 0.014295002446 -0.0085474709049 -0.025844771415 -0.019237341359 -0.0113208564
          -0.0057752206922 0.0059735695831 -0.03270349279 0.0053217848763 0.017726043239 0.021152671427
          -0.029275365174 -0.00014239578741 -0.011334621347 -0.016902163625 0.0043485318311 0.014468424954
          -0.008581395261 -0.026004584506 -0.019325582311 -0.011394579895 -0.0057687982917 0.006049785763
          -0.032885815948 0.0053643952124 0.017871491611 0.021348346025 -0.029408402741 -6.5529711719e-05
          -0.011333634146 -0.016906820238 0.0044183479622 0.01460051164 -0.0086084213108 -0.026122137904
          -0.019384391606 -0.011456841603 -0.0057610231452 0.006102502346 -0.033010911196 0.0053844796494
          0.017968550324 0.02148828283 -0.029490368441 -5.1441002142e-06 -0.011327093467 -0.016901437193
          0.0044706570916 0.014696383849 -0.008626408875 -0.02620190382 -0.019421184435 -0.011501721106
          -0.0057527748868 0.0061397012323 -0.033091813326 0.0053950073197 0.018033692613 0.021586140618
          -0.029539098963 3.459121217e-05 -0.01132188458 -0.016898993403 0.004507701844 0.014760998078