<VTKFile type="UnstructuredGrid" version="1.0" byte_order="LittleEndian" header_type="UInt64">
  <UnstructuredGrid>
    <Piece NumberOfPoints="791" NumberOfCells="973">
      <PointData>
        <DataArray type="Float32" Name="ux" format="ascii" RangeMin="-1.2473940849" RangeMax="1.2473343611">
          0.0045713065192 0.0029407530092 0.0020527821034 -2.4040929929e-05 -0.0046289875172 -0.0021082272287
          -0.0029833340086 0.0045849885792 0.0045914864168 0.0018742325483 -2.1654836019e-05 -0.004619140178
          -0.0046317949891 -0.0019189697923 0.0048230197281 0.0018377546221 -0.0048949201591 -0.0018970462261
          -9.5707211585e-05 -2.5136656404e-05 5.0857470342e-05 0.00011050423927 -0.00013824623602 -0.00035524001578
          -3.1394658436e-05 0.00028690628824 -2.2544409148e-05 0.23127444088 0.23063924909 0.23135444522
          0.11296974868 0.11281573027 0.11300391704 0.2303070128 0.11252705753 0.23031048477
          0.11192309111 0.23038592935 0.23008820415 0.23017033935 0.11331257969 0.11308199912
          0.11256987602 0.23078972101 0.11464632303 0.23030097783 0.11282612383 0.23013985157
          0.11284954846 0.22975932062 0.11181025207 0.23072850704 0.11451265216 0.22991631925
          0.11289755255 0.22958771884 0.11165748537 0.23047155142 0.11211878061 0.36512431502
          0.36503842473 0.36518460512 0.36491549015 0.36483973265 0.36500656605 0.36499497294
          0.36495959759 0.36514627934 0.36495989561 0.36489906907 0.36488187313 0.36507791281
          0.36483123899 0.36468815804 0.36500447989 0.50378811359 0.50401008129 0.50384658575
          0.5040371418 0.50405853987 0.50395637751 0.5041384697 0.50416862965 0.50372576714
          0.50404256582 0.50400263071 0.50441378355 0.50366866589 0.50397890806 0.50420254469
          0.50421541929 0.63506692648 0.63560575247 0.63511776924 0.63576799631 0.63583701849
          0.63555133343 0.63592690229 0.63598501682 0.63501447439 0.63574743271 0.63573414087
          0.63651579618 0.63496142626 0.63577210903 0.63628703356 0.63598972559 0.74840092659
          0.74920350313 0.7484472394 0.74948436022 0.74960249662 0.749155581 0.74969184399
          0.74977707863 0.74835026264 0.74944335222 0.74945420027 0.75055384636 0.74830251932
          0.749540627 0.75031048059 0.7497510314 0.83468574286 0.83570277691 0.83472800255
          0.83607798815 0.83623361588 0.83565735817 0.83632445335 0.83643084764 0.83463799953
          0.83601975441 0.83604943752 0.83740544319 0.8345939517 0.83617597818 0.83714979887
          0.83637923002 0.88660049438 0.88777399063 0.88664001226 0.88821840286 0.88840138912
          0.88773220778 0.88849467039 0.88861590624 0.88655686378 0.8881483078 0.88819205761
          0.88973486423 0.88651555777 0.88834792376 0.88946998119 0.88854515553 0.89881032705
          0.90007948875 0.89884835482 0.90056592226 0.90076488256 0.90004116297 0.90086191893
          0.90099108219 0.89877218008 0.90048909187 0.90054166317 0.90219765902 0.89873224497
          0.90071564913 0.9019266367 0.90090799332 0.86808848381 0.86939156055 0.86812633276
          0.86989253759 0.87009602785 0.86935675144 0.870198071 0.87032836676 0.86805713177
          0.8698143363 0.86987042427 0.87156516314 0.86801737547 0.87005114555 0.87129092216
          0.87023991346 0.79334533215 0.79462271929 0.79338425398 0.79511165619 0.79530876875
          0.79459136724 0.79541689157 0.7955417037 0.79332196712 0.79503720999 0.79509174824
          0.79675316811 0.79328119755 0.79526823759 0.79647880793 0.79545450211 0.67555433512
          0.67675161362 0.67559552193 0.6772043705 0.67738497257 0.67672377825 0.67750024796
          0.67761349678 0.67554014921 0.67713838816 0.67718660831 0.67874902487 0.67549729347
          0.67734885216 0.67847728729 0.67753368616 0.51757454872 0.51864540577 0.51761895418
          0.51904129982 0.51919686794 0.51862102747 0.51932024956 0.51941680908 0.51757049561
          0.51898783445 0.51902574301 0.52043330669 0.51752460003 0.51916527748 0.5201665163
          0.51934951544 0.323869735 0.32477873564 0.32391810417 0.32510203123 0.3252260983
          0.32475778461 0.32535821199 0.32543411851 0.32387650013 0.32506412268 0.3250887394
          0.32629853487 0.32382693887 0.32519900799 0.32603859901 0.32538333535 0.10013236105
          0.10085734725 0.10018510371 0.10109835118 0.10118684918 0.10083987564 0.10132800043
          0.10138081014 0.10015037656 0.10107782483 0.10108726472 0.10207264125 0.10009671003
          0.10116433352 0.10182079673 0.10134900361 -0.14717748761 -0.14664322138 -0.14712031186
          -0.14648737013 -0.1464356035 -0.14665719867 -0.1462854296 -0.14625641704 -0.14714813232
          -0.14648996294 -0.14649622142 -0.14574338496 -0.14720597863 -0.1464535445 -0.14598658681
          -0.14626854658 -0.41136464477 -0.41101077199 -0.41130328178 -0.41093546152 -0.41091835499
          -0.41102129221 -0.41075947881 -0.41075322032 -0.41132420301 -0.4109210968 -0.41094207764
          -0.41040924191 -0.41138598323 -0.41093173623 -0.41064417362 -0.41074675322 -0.68608850241
          -0.68588638306 -0.68602371216 -0.68587845564 -0.6858907342 -0.6858934164 -0.68572390079
          -0.68573689461 -0.68603771925 -0.68584942818 -0.68588286638 -0.68553543091 -0.68610274792
          -0.68589967489 -0.68576323986 -0.68571531773 -0.96598821878 -0.96589076519 -0.96592086554
          -0.96592956781 -0.96596217155 -0.96589404345 -0.96578830481 -0.96581608057 -0.96592748165
          -0.96589052677 -0.96593165398 -0.96571272612 -0.9659948945 -0.96596634388 -0.96593570709
          -0.96578425169 -1.2473498583 -1.247289896 -1.2472821474 -1.2473447323 -1.2473851442
          -1.2472909689 -1.2472075224 -1.2472407818 -1.2472844124 -1.2473015785 -1.2473454475
          -1.2471728325 -1.2473521233 -1.2473865747 -1.2473940849 -1.2472060919 -0.00081525219139
          0.011170474812 -0.00082758988719 0.015291237272 0.0074338130653 0.03438969329 0.036917809397
          0.022436836734 0.047250188887 0.022654097527 0.029651392251 0.021528948098 0.047016210854
          0.036744982004 0.021461689845 0.0075865741819 0.0046456237324 0.006165263243 0.010682400316
          0.00033537775744 0.0028668146115 0.010427990928 0.0061745806597 -0.11300952733 -0.11284161359
          -0.11302517354 -0.23130603135 -0.2306561321 -0.23136642575 -0.11256964505 -0.2303417027
          -0.11197860539 -0.23035778105 -0.11333888024 -0.11308609694 -0.11258514971 -0.23040255904
          -0.23008430004 -0.23017603159 -0.11466725171 -0.23080164194 -0.11285702139 -0.23032264411
          -0.11289242655 -0.23017455637 -0.11180860549 -0.22974942625 -0.11455313861 -0.2307601124
          -0.1129540205 -0.22996367514 -0.11171944439 -0.229641065 -0.11212429404 -0.23046775162
          -0.3651484251 -0.36504760385 -0.36518889666 -0.36494264007 -0.36487990618 -0.36501577497
          -0.36498293281 -0.36495766044 -0.36515045166 -0.36497408152 -0.36492624879 -0.36486369371
          -0.3651021421 -0.36487159133 -0.36473459005 -0.36499258876 -0.50380587578 -0.50401264429
          -0.50384414196 -0.50405806303 -0.50409257412 -0.50395894051 -0.50411945581 -0.50415986776
          -0.50372326374 -0.50405019522 -0.50402355194 -0.50438857079 -0.50368654728 -0.50401318073
          -0.50424295664 -0.50419658422 -0.63507944345 -0.63560283184 -0.63510978222 -0.63578367233
          -0.63586604595 -0.6355484128 -0.63590210676 -0.6359705925 -0.63500642776 -0.63574969769
          -0.6357498765 -0.63648468256 -0.63497406244 -0.63580137491 -0.63632249832 -0.63596504927
          -0.74840927124 -0.74919623137 -0.74843484163 -0.74949592352 -0.74962764978 -0.74914830923
          -0.74966239929 -0.74975812435 -0.74833774567 -0.74944132566 -0.74946582317 -0.75051802397
          -0.74831098318 -0.74956595898 -0.75034213066 -0.74972170591 -0.83469104767 -0.83569222689
          -0.83471220732 -0.83608651161 -0.83625590801 -0.83564680815 -0.83629143238 -0.8364084959
          -0.83462208509 -0.8360145092 -0.83605802059 -0.83736592531 -0.83459931612 -0.83619844913
          -0.83717870712 -0.83634632826 -0.88660359383 -0.88776111603 -0.88662183285 -0.88822484016
          -0.88842171431 -0.88771933317 -0.88845908642 -0.8885910511 -0.88653868437 -0.88814073801
          -0.88819849491 -0.88969272375 -0.88651877642 -0.88836836815 -0.8894969821 -0.88850969076
          -0.8988122344 -0.90006524324 -0.89882880449 -0.90057116747 -0.90078413486 -0.90002691746
          -0.90082472563 -0.90096479654 -0.89875257015 -0.90048021078 -0.90054696798 -0.90215390921
          -0.89873427153 -0.90073508024 -0.90195262432 -0.90087103844 -0.86809015274 -0.86937695742
          -0.8681063652 -0.86989754438 -0.87011522055 -0.8693420887 -0.87016028166 -0.87030154467
          -0.868037045 -0.86980509758 -0.86987549067 -0.87152069807 -0.86801916361 -0.87007045746
          -0.87131690979 -0.87020230293 -0.7933473587 -0.79460841417 -0.79336452484 -0.79511713982
          -0.79532849789 -0.79457706213 -0.79537922144 -0.79551512003 -0.79330217838 -0.7950283885
          -0.79509723186 -0.79670882225 -0.79328340292 -0.79528814554 -0.7965053916 -0.79541701078
          -0.67555755377 -0.67673838139 -0.67557680607 -0.67721098661 -0.67740595341 -0.67671048641
          -0.67746353149 -0.67758786678 -0.67552131414 -0.67713063955 -0.67719328403 -0.67870551348
          -0.67550063133 -0.67737007141 -0.67850524187 -0.67749708891 -0.51757967472 -0.51863390207
          -0.51760196686 -0.51904988289 -0.51921999454 -0.51860946417 -0.51928508282 -0.51939284801
          -0.51755338907 -0.51898187399 -0.51903438568 -0.52039122581 -0.51752984524 -0.51918852329
          -0.52019649744 -0.51931446791 -0.32387751341 -0.32476967573 -0.32390350103 -0.32511326671
          -0.32525196671 -0.3247487247 -0.32532531023 -0.32541248202 -0.32386183739 -0.32506066561
          -0.32510000467 -0.32625871897 -0.32383477688 -0.32522502542 -0.32607144117 -0.3253505528
          -0.10014346242 -0.10085152835 -0.10017367452 -0.10111293197 -0.10121617466 -0.10083404183
          -0.10129819065 -0.10136234015 -0.10013889521 -0.10107763112 -0.10110188276 -0.10203588009
          -0.100107871 -0.10119376332 -0.10185713321 -0.1013192907 0.14716246724 0.14664517343
          0.14712789655 0.14646886289 0.1464022845 0.14665916562 0.14631141722 0.14627104998
          0.14715576172 0.14648625255 0.14647768438 0.14577636123 0.14719089866 0.146420151
          0.14594624937 0.1462944746 0.41134518385 0.4110083282 0.41130647063 0.41091248393
          0.41088056564 0.41101884842 0.41078108549 0.41076347232 0.41132742167 0.41091296077
          0.41091910005 0.41043785214 0.41136646271 0.41089391708 0.41059935093 0.4107683301
          0.68606430292 0.6858792305 0.68602216244 0.68585073948 0.68584817648 0.68588626385
          0.68574076891 0.68574243784 0.68603616953 0.68583655357 0.68585515022 0.68555933237
          0.68607848883 0.68585705757 0.6857136488 0.68573218584 0.96595907211 0.96587860584
          0.96591442823 0.96589690447 0.96591460705 0.9658819437 0.96580028534 0.96581667662
          0.96592104435 0.96587270498 0.96589893103 0.96573174 0.96596568823 0.96591877937
          0.96588110924 0.96579623222 1.2473156452 1.2472727299 1.2472707033 1.2473070621
          1.2473325729 1.2472738028 1.2472144365 1.247236371 1.2472729683 1.2472788095
          1.2473077774 1.2471868992 1.2473180294 1.2473340034 1.2473343611 1.247213006
          0.00075841788203 -0.011207886972 0.00079392740736 -0.015348399989 -0.0075047658756 -0.034424357116
          -0.036938354373 -0.022460291162 -0.047280211002 -0.022693954408 -0.029705408961 -0.021540312096
          -0.047064259648 -0.03680742532 -0.021534707397 -0.007600847166 -0.0046865837649 -0.0061790202744
          -0.010712045245 -0.00038585232687 -0.0029212695081 -0.010476632975 -0.0062426980585 0.00044117012294
          -1.3740931536e-05 -0.00047167987213 -0.001113556209 -1.7483996999e-05 0.0010786126368 -1.9235822037e-05
          -0.0011131247738 -2.1190857296e-05 -0.00047362429905 0.00042877392843 -2.3322421839e-05 0.0010742594022
          3.7234189222e-05 -9.4764072855e-06 -5.7095108787e-05 -3.3932972201e-06 -1.1238496882e-05 -1.9828585209e-05
          -1.2479530596e-05 -7.6616979641e-06 -1.3606241737e-05 -6.5478292527e-05 3.5313467379e-05 -1.5652007278e-05
          -1.9926483219e-05 7.3931922088e-05 -4.9064055929e-06 -8.4763974883e-05 -0.00015678146156 -6.4366777224e-06
          0.00014348495461 -7.3578785305e-06 -0.00015819874534 -8.3047643784e-06 -8.8955108367e-05 7.0372640039e-05
          -9.741624126e-06 0.00014204936451 7.6605610957e-05 -1.8041663452e-06 -8.0809855717e-05 -0.0001260797435
          -2.7500220767e-06 0.0001202023559 -3.3474627799e-06 -0.00012776411313 -3.9215510697e-06 -8.4488077846e-05
          7.5355143053e-05 -4.8334795792e-06 0.00011997107504 8.3803475718e-05 -9.5536101696e-08 -8.4312334366e-05
          -0.00013845143258 -5.6136013882e-07 0.00013700465206 -8.5316526111e-07 -0.00013961379591 -1.1385909602e-06
          -8.6839419964e-05 8.3936094597e-05 -1.5653477021e-06 0.00013725060853 0 0
          0 0 0 0 0 0
          0 0 0 0 0
        </DataArray>
        <DataArray type="Float32" Name="uy" format="ascii" RangeMin="-0.0028139248025" RangeMax="0.0023690264206">
          -0.00075828563422 -0.00015854503727 -0.00037040683674 -0.00098649447318 -0.00076654087752 -0.00038707439671
          -0.00014773983276 0.0001928062411 0.00080839480506 0.00083675282076 0.0003713076876 0.00081531738397
          0.00018782564439 0.00083807262126 -0.0014971867204 -0.0013911682181 -0.0015161941992 -0.0014101689449
          -0.00076616468141 0.00091431103647 -0.00081215926912 -0.0010191401234 -0.00105391955 0.00049255153863
          -0.0015026534675 0.00055979989702 -0.000325500092 -0.00072558817919 -0.00011678776355 0.00016243390564
          -0.0010453913128 -0.00017933661002 0.0002494432847 -0.00043001479935 -0.00061706622364 -0.00098882929888
          -0.0014913128689 -0.00026253564283 -0.00080780585995 -0.00017303886125 -0.00047109252773 -0.0014152171789
          -0.00034840201261 -0.00053581898101 -0.00099497870542 -0.00019428606902 -0.00030972395325 1.2404460904e-05
          6.0988175392e-05 -0.00015798391541 -0.00027170788962 0.00032510355231 0.00051865435671 0.00055224291282
          0.00094852864277 -0.00023397472978 -0.00032580285915 0.00046754156938 0.00072983652353 -0.00031806592597
          -8.9951412519e-05 -4.0065937355e-05 -0.00019562337548 -0.00039285907405 -5.8823465224e-05 -0.00014997033577
          -5.2190280257e-05 -8.1323058112e-05 -8.6037660367e-05 -3.3743835957e-05 -1.5984571291e-05 9.545138164e-05
          9.8867596535e-05 -0.0001554832852 9.8649921711e-05 7.630392065e-05 -7.5774827565e-05 -0.00024758890504
          3.792872667e-05 0.00020066136494 0.00011774805898 0.00040280591929 4.1538947698e-05 0.00030670300475
          1.2092115867e-05 -6.1151724367e-05 6.8825960625e-05 -8.5130588559e-05 -0.0002683007915 -4.6502223995e-05
          -0.00028774052043 0.00042085282621 -6.252372259e-05 -0.00042960667633 0.00024111672246 0.00071824458428
          0.00027573428815 0.00090847007232 0.0001249955094 0.00066053739283 9.7968928458e-05 -8.9477536676e-05
          0.0001524258696 -0.00025840330636 -0.00061214278685 4.2329374992e-05 -0.00062366388738 0.00071569025749
          -5.3942305385e-05 -0.0005891523324 0.00041376598529 0.0011626918567 0.00040918495506 0.0013385557104
          0.00019514237647 0.00096099136863 0.00016954659077 -0.00011653703405 0.00022017309675 -0.00040743823047
          -0.00090740557062 0.00011734124564 -0.00091691099806 0.0009505226044 -4.937261474e-05 -0.00072004238609
          0.00055067770882 0.001518161851 0.00051412853645 0.0016817257274 0.00024849839974 0.0012003133306
          0.00022483887733 -0.00013982514793 0.00027179083554 -0.00052939518355 -0.0011465079151 0.00017617917911
          -0.0011553292861 0.0011190385558 -4.9228179705e-05 -0.00081888120621 0.00064798264066 0.0017752435524
          0.00058771751355 0.0019284109585 0.00028411741368 0.0013718155678 0.00026226550108 -0.0001593708148
          0.00030553125544 -0.00062074727612 -0.0013228968019 0.00021719629876 -0.001333112712 0.0012170299888
          -5.3763789765e-05 -0.00088376854546 0.00070319819497 0.0019277371466 0.00062799354782 0.0020726656076
          0.0003007130872 0.0014713354176 0.00028069052496 -0.0001747879287 0.0003202908556 -0.00067961815512
          -0.0014326650416 0.00023923940898 -0.0014464110136 0.0012434227392 -6.3231498643e-05 -0.00091442780104
          0.00071562296944 0.0019741249271 0.00063436181517 0.0021129746456 0.00029791053385 0.0014977534302
          0.00027970943484 -0.00018622451171 0.00031567187398 -0.00070573273115 -0.0014750979608 0.00024192022101
          -0.0014945883304 0.0012003240408 -7.7849181253e-05 -0.00091242074268 0.00068634259515 0.0019177048234
          0.00060757138999 0.0020525229629 0.00027595760184 0.0014531691559 0.00025957962498 -0.00019423014601
          0.00029192163493 -0.00070068065543 -0.0014529749751 0.00022549863206 -0.0014802908991 0.0010930411518
          -9.7888834716e-05 -0.00088129955111 0.00061825971352 0.0017666671192 0.00054979516426 0.0018993448466
          0.00023581452842 0.0013430365361 0.00022124960378 -0.00019982348022 0.00024999692687 -0.00066786963725
          -0.0013726032339 0.00019090704154 -0.0014096499654 0.00092992675491 -0.00012377591338 -0.00082664994989
          0.0005159463617 0.0015339173842 0.00046443822794 0.0016660690308 0.00017896482314 0.0011759274639
          0.00016621167015 -0.0002045899455 0.00019138024072 -0.00061266863486 -0.0012439023703 0.00013964554819
          -0.0012923178729 0.00072225811891 -0.00015601863561 -0.00075587211177 0.00038556999061 0.0012368084863
          0.00035605716403 0.001369599835 0.00010743125313 0.00096327956999 9.648908599e-05 -0.00021065614419
          0.00011809611897 -0.00054231093964 -0.0010801859898 7.3724077083e-05 -0.0011411631713 0.00048390068696
          -0.00019519099442 -0.00067799026147 0.00023474902264 0.00089665676933 0.00023032960598 0.0010307602352
          2.3766755476e-05 0.00071924016811 1.4633024875e-05 -0.00022054009605 3.2682190067e-05 -0.00046554315486
          -0.00089767854661 -4.314070793e-06 -0.00097190379165 0.00023070850875 -0.00024213088909 -0.00060361664509
          7.2143222496e-05 0.00053793290863 9.3681766884e-05 0.00067346717697 -6.9249392254e-05 0.00046001837472
          -7.6567099313e-05 -0.00023731529654 -6.2083025114e-05 -0.00039262208156 -0.00071527331602 -9.1688249086e-05
          -0.00080289598554 -2.0205856345e-05 -0.00029805445229 -0.00054478412494 -9.3127237051e-05 0.00018725715927
          -4.7184985306e-05 0.00032374603325 -0.00016886784579 0.0002031505428 -0.00017436919734 -0.00026464372058
          -0.00016346974007 -0.00033516486292 -0.00055412156507 -0.00018567353254 -0.00065467244713 -0.00025074961013
          -0.00036495013046 -0.00051506585442 -0.00025137036573 -0.00012698043429 -0.0001853081485 9.4300994533e-06
          -0.00027260842035 -3.2797834137e-05 -0.00027629412943 -0.00030724427779 -0.00026895699557 -0.00030631216941
          -0.00043771800119 -0.00028383007157 -0.00055006035836 -0.00044341693865 -0.00044461720972 -0.0005281130434
          -0.00039405032294 -0.00037699891254 -0.00031470815884 -0.00024290633155 -0.00037847264321 -0.00023010469158
          -0.00038020851207 -0.00036919378908 -0.00037675155909 -0.00031911284896 -0.00038907976705 -0.00038372573908
          -0.00051189062651 -0.00057932012714 -0.00054075469961 -0.00060045474675 -0.00051158323186 -0.00053273653612
          -0.00042815069901 -0.00040112386341 -0.00048404739937 -0.00036805513082 -0.00048463608255 -0.00045865567517
          -0.00048342644004 -0.00039069994818 -0.0004385166103 -0.00048586467165 -0.00056618097005 -0.0014743185602
          -0.00018721538072 0.00048927799799 -0.00075245002517 -0.0019432408735 -0.00065856892616 -0.0021070740186
          -0.00052073295228 -0.0014443580294 -0.00036889468902 0.00022483419161 -0.00046848683269 0.00083999917842
          0.0015307065332 -0.00023784661607 0.001032371074 -0.00074494519504 -0.0028139248025 -0.001801632694
          -0.00030290347058 0.00062818895094 0.0012010673527 0.0023505939171 -0.0009599076584 -0.00010947880219
          0.00033551451634 -0.00065614143386 -6.2109516875e-05 0.00023166390019 -0.00055180652998 -0.00038122539991
          -0.0014171452494 -0.00093067850685 -0.00042958534323 -0.0013778123539 -0.00028996664332 -0.00023813659209
          -0.00078679423314 -0.00013402284821 -0.00096912257141 -0.00052642193623 -0.00025230363826 -0.00015511563106
          0.00010867344099 4.2502546421e-05 -0.0002150007931 -0.0001183780405 0.00054472277407 0.00033454588265
          0.00098620506469 0.00057329447009 -0.0002669057576 -0.00019501995121 0.00080384273315 0.00052573694848
          -0.00026331294794 -5.0552556786e-05 1.4806741092e-05 -0.00016204750864 -0.00034980586497 -5.0140766689e-05
          -0.0001449581614 -2.8006881621e-05 -8.808059647e-05 -6.1887338234e-05 -1.911317122e-05 8.116101526e-06
          8.8770364528e-05 0.00010402344196 -0.00013114980538 0.00014177030243 0.00011819934298 -4.9392470828e-05
          -0.00020566242165 5.8348286984e-05 0.00023072586919 0.00011289877148 0.00039430407924 5.2329673053e-05
          0.00028618631768 2.2855245334e-05 -6.0001028032e-05 7.9722420196e-05 -0.0001055907851 -0.00027671901626
          -3.5662334994e-05 -0.00025758644915 0.00045188723016 -4.7253131925e-05 -0.00039852256305 0.0002503550204
          0.00073726417031 0.0002593320969 0.00088833953487 0.00012447686458 0.00062823604094 9.7428215668e-05
          -9.97811876e-05 0.00015196757158 -0.00029064036789 -0.00063216983108 4.1898012569e-05 -0.00060456770007
          0.00073793483898 -4.7679834097e-05 -0.00056685955497 0.00041390888509 0.0011727591045 0.00038331458927
          0.0013089095009 0.00018537617871 0.00091900234111 0.00015976009308 -0.00013621963444 0.00021047625341
          -0.00044936823542 -0.00093694851967 0.00010766312334 -0.00090677622939 0.00096600479446 -5.008871085e-05
          -0.00070451991633 0.00054376252228 0.0015213033184 0.00048086608876 0.0016446391819 0.00023155158851
          0.0011507180752 0.00020786974346 -0.00016682437854 0.00025491134147 -0.00057893368648 -0.001183500397
          0.00015931448434 -0.0011521240231 0.0011296875309 -5.4940570408e-05 -0.00080819276627 0.00063600693829
          0.0017734281719 0.0005491298507 0.0018859662814 0.0002620118903 0.0013167359866 0.00024013366783
          -0.00019163607794 0.00028349293279 -0.00067577383015 -0.0013652556809 0.00019516801694 -0.0013348659268
          0.0012249441352 -6.2373066612e-05 -0.00087581551634 0.00068826513598 0.0019230614416 0.00058619346237
          0.002026976319 0.00027555369888 0.0014128845651 0.00025550328428 -0.00021020739223 0.00029520795215
          -0.0007380192983 -0.0014782772632 0.0002141558216 -0.0014510186156 0.0012507468928 -7.2583869041e-05
          -0.00090706720948 0.00069989124313 0.0019687474705 0.00059151783353 0.002066207584 0.00027185419458
          0.001438112813 0.00025362774613 -0.00022262978018 0.00028968817787 -0.00076532748062 -0.0015217958717
          0.0002159444557 -0.0014999093255 0.001209075097 -8.5897016106e-05 -0.00090363679919 0.00067187147215
          0.0019136620685 0.00056579406373 0.0020067966543 0.00025108785485 0.0013944766251 0.00023468447034
          -0.00022952476866 0.00026712051476 -0.00075933302287 -0.0014986405149 0.00020070392929 -0.0014842823148
          0.0011052248301 -0.00010262342403 -0.00086908077355 0.00060705229407 0.001765958732 0.00051108974731
          0.0018566596555 0.00021413601644 0.00128729688 0.00019954684831 -0.00023200215946 0.00022838918085
          -0.0007235679077 -0.0014152260264 0.00016930194397 -0.0014102960704 0.00094760284992 -0.00012316319044
          -0.00080893491395 0.00051002099644 0.0015385813313 0.00043077921146 0.001628389 0.00016248071915
          0.0011250835378 0.00014970319171 -0.00023166908068 0.00017496396322 -0.00066346733365 -0.0012815168593
          0.00012322149996 -0.0012875873363 0.00074734026566 -0.00014816793555 -0.00073075800901 0.00038682934246
          0.0012487510685 0.00032933472539 0.0013388149673 9.802524437e-05 0.00091923272703 8.7065418484e-05
          -0.00023074304045 0.00010874460713 -0.00058631511638 -0.0011109067127 6.4378604293e-05 -0.0011291690171
          0.0005178473657 -0.00017858284991 -0.00064401869895 0.0002447256702 0.00091737625189 0.00021216986352
          0.00100850733 2.3012686142e-05 0.00068366463529 1.3867825146e-05 -0.00023202950251 3.1970168493e-05
          -0.0005010823952 -0.0009198730113 -5.016468549e-06 -0.00095114624128 0.00027459749253 -0.00021564532653
          -0.00055970560061 9.1975176474e-05 0.00056853925344 8.5299674538e-05 0.0006609763368 -6.0180092987e-05
          0.00043417979032 -6.7507658969e-05 -0.00023901762324 -5.2984287322e-05 -0.00041843272629 -0.0007277209661
          -8.2585604105e-05 -0.00077225582208 3.4393156966e-05 -0.00026088568848 -0.00049017020501 -6.2621482357e-05
          0.0002285464434 -4.492662265e-05 0.00032188306795 -0.00014914222993 0.00018792995252 -0.00015465113393
          -0.00025570380967 -0.0001437220053 -0.00035036043846 -0.00055594858713 -0.00016592476459 -0.00061335955979
          -0.00018485804321 -0.00031651972677 -0.00044917079504 -0.00020960411348 -7.4417461292e-05 -0.00017182237934
          1.8786644432e-05 -0.00024164527713 -3.6799487134e-05 -0.00024533207761 -0.00028707287856 -0.00023798599432
          -0.00031029863749 -0.00042833114276 -0.00025284130243 -0.00049749604659 -0.00036584920599 -0.00038454178139
          -0.00045054371003 -0.00034065620275 -0.00031279344694 -0.00028962810757 -0.00022195880592 -0.00033589196391
          -0.0002225303906 -0.0003376279783 -0.00033742550295 -0.00033416718361 -0.00031153491 -0.0003681218659
          -0.00034113842412 -0.00044768111547 -0.000490037899 -0.00046897484572 -0.00051117135445 -0.00044649175834
          -0.00045682516065 -0.00039138185093 -0.00036848706077 -0.00042977096746 -0.0003487902286 -0.00043036343413
          -0.00041520028026 -0.00042915166705 -0.00037143434747 -0.00040587966214 -0.00043159315828 -0.00049026595661
          -0.0013836487196 -0.00010883381037 0.00057990232017 -0.00068598426878 -0.0018664458767 -0.00061990262475
          -0.00207121321 -0.00047302761232 -0.0014186996268 -0.00031694862992 0.00026746393996 -0.00041575671639
          0.00086510804249 0.0015670689754 -0.00019289106422 0.0011128369952 -0.00072717812145 -0.0027898149565
          -0.0017979606055 -0.00027335502091 0.00065972883021 0.001205978333 0.0023690264206 -0.00024330247834
          -0.00020198372658 -0.00023679196602 -0.00022131358855 -0.00021430666675 -0.00023011003213 -0.00016627954028
          -0.00012260199583 -0.00013148381549 -0.00012104552297 -0.00012216137839 -0.00016060678172 -0.00013008037058
          2.2587191779e-05 5.392296589e-05 2.6106874429e-05 -5.7223296608e-05 -5.3102943639e-05 -6.3286315708e-05
          -0.00011413546599 -0.00016029897961 -0.00017235666746 -0.00024589637178 -0.00025067280512 -0.00027836763184
          -0.00016669483739 5.1964732847e-05 7.9067758634e-05 5.4922609706e-05 -1.2883024283e-05 -4.664912467e-06
          -1.7493361156e-05 -6.1240374635e-05 -0.00010553548054 -0.00011863507825 -0.00017609320639 -0.000178547838
          -0.00020342577773 -0.0001099378278 7.6833734056e-05 0.00010190508328 7.8702629253e-05 1.4192328308e-05
          2.338788363e-05 1.1244917005e-05 -2.6980522307e-05 -6.4715473854e-05 -7.7445460192e-05 -0.00013162933465
          -0.00013337409473 -0.00015714792244 -6.7561646574e-05 0.00011071548215 0.00013931350259 0.00011173520761
          3.969264435e-05 4.8898415116e-05 3.8202193537e-05 -6.482111985e-06 -5.0818089221e-05 -6.2166924181e-05
          -0.00012490365771 -0.00012558890739 -0.00015404931037 -5.21147158e-05 0 0
          0 0 0 0 0 0
          0 0 0 0 0
        </DataArray>
        <DataArray type="Float32" Name="uz" format="ascii" RangeMin="-0.2350307703" RangeMax="0.06609711051">
          -0.0041448795237 -0.0044067110866 -0.0039873518981 -0.0042367675342 -0.0041337870061 -0.0039794496261
          -0.0043907049112 -0.0039863875136 -0.0039686155505 -0.0037843107712 -0.0042825536802 -0.0039951410145
          -0.0039782621898 -0.0037873485126 -0.003712013131 -0.0038734546397 -0.0037003797479 -0.0038874943275
          -0.0034456930589 -0.0031067223754 -0.0035060963128 -0.0023584822193 -0.0023933919147 -0.0024132963736
          -0.0033703099471 -0.0024380180985 -0.0044754492119 -0.14800477028 -0.11424762011 -0.14812926948
          -0.13602669537 -0.10800969601 -0.13609951735 -0.10147742927 -0.097366251051 -0.12239123881
          -0.11451149732 -0.047540057451 -0.039461251348 -0.080929405987 -0.053665522486 -0.047095842659
          -0.080464929342 -0.013647456653 -0.027005732059 -0.080893985927 -0.080531619489 -0.060257531703
          -0.063750579953 -0.080982543528 -0.080406539142 -0.013694699854 -0.027002729475 -0.039311658591
          -0.046973962337 -0.080849774182 -0.080263704062 -0.12243811786 -0.11459747702 -0.15424540639
          -0.1176571548 -0.15434242785 -0.10376130044 -0.12641340494 -0.045035105199 -0.036290243268
          -0.081375107169 -0.0083137666807 -0.081342555583 -0.05887677893 -0.081403002143 -0.0083437394351
          -0.03615398705 -0.0812895298 -0.12646926939 -0.15386034548 -0.11762069166 -0.15395669639
          -0.1038660109 -0.12629333138 -0.045757472515 -0.037109650671 -0.081705071032 -0.0094545474276
          -0.081680968404 -0.059452347457 -0.081729121506 -0.0094843534753 -0.036987930536 -0.081625372171
          -0.12633764744 -0.14743044972 -0.11460011452 -0.14751151204 -0.10213363171 -0.12245232612