<VTKFile type="UnstructuredGrid" version="1.0" byte_order="LittleEndian" header_type="UInt64">
  <UnstructuredGrid>
    <Piece NumberOfPoints="791" NumberOfCells="973">
      <PointData>
        <DataArray type="Float32" Name="ux" format="ascii" RangeMin="-0.048213891685" RangeMax="0.048123907298">
          0.00025645177811 -0.00076966418419 0.0016635883367 -5.6720466091e-05 -0.00036101520527 -0.0017742969794
          0.00066349550616 -0.00036975793773 -0.0022111514118 -0.00087788607925 -5.2051509556e-05 0.0021159884054
          0.00025934309815 0.00077325745951 0.0021927473135 0.0009820262203 -0.0022966219112 -0.0010918722255
          -0.002205939265 -5.4396761698e-05 0.0020958699752 -0.003710107645 0.0036077431869 -0.0037485675421
          -5.4985393945e-05 0.0036454927176 -5.5084612541e-05 -0.011833705008 0.0059200883843 0.012166917324
          -0.011490680277 0.0056815515272 0.011756364256 -0.014667727053 -0.014086831361 -0.030294518918
          -0.029068671167 0.0053646252491 0.027266420424 0.017928322777 0.0050010099076 0.025336464867
          0.01700573042 0.010093933903 0.0091573148966 0.00015343060659 0.00012956224964 -0.013773195446
          -0.012983610854 0.035696368665 0.033869683743 -0.0098093990237 -0.0089926561341 -0.026913853362
          -0.025006216019 -0.035387538373 -0.033588007092 0.030559016392 0.029258690774 -0.012038943358
          0.0060344412923 0.012334220111 -0.015061419457 -0.030904434621 0.0055585512891 0.028377341107
          0.018446788192 0.010575264692 0.00013754672545 -0.014291293919 0.036752283573 -0.010329314508
          -0.028065741062 -0.036474078894 0.031144961715 -0.01217416767 0.006086345762 0.012356420979
          -0.01547534205 -0.031471826136 0.0057759406045 0.029794765636 0.019008021802 0.011200622655
          8.4272069216e-05 -0.014973890036 0.037935715169 -0.011048903689 -0.029601663351 -0.037765488029
          0.031615942717 -0.012260659598 0.0060888826847 0.012276098132 -0.015861328691 -0.031894881278
          0.0059670084156 0.031184263527 0.019495595247 0.011823859997 5.0873541113e-06 -0.015664681792
          0.038984995335 -0.011821543798 -0.031164616346 -0.038973640651 0.03189625591 -0.012307810597
          0.006055470556 0.012125950307 -0.016218664125 -0.03222900629 0.006142525468 0.032566536218
          0.019935989752 0.012448131107 -8.8942651928e-05 -0.016360104084 0.039961367846 -0.012622649781
          -0.032751373947 -0.040138982236 0.032058149576 -0.012338250875 0.0060086068697 0.01195135992
          -0.016554191709 -0.032512474805 0.0063044810668 0.033891927451 0.020340429619 0.013048651628
          -0.00018683428061 -0.017033442855 0.040867496282 -0.01340804901 -0.034288987517 -0.041241642088
          0.032162006944 -0.012370062061 0.0059658098035 0.011792232282 -0.016868263483 -0.032782722265
          0.0064545562491 0.035122476518 0.020717520267 0.013605139218 -0.00027800328098 -0.017659557983
          0.041712798178 -0.01413679868 -0.035717036575 -0.042269978672 0.032264791429 -0.012420358136
          0.0059440010227 0.011685313657 -0.017163297161 -0.033073782921 0.0065946592949 0.03622270003
          0.021076269448 0.01409892831 -0.00035300513264 -0.018216527998 0.042505148798 -0.01477213297
          -0.036979984492 -0.043212901801 0.032418329269 -0.012502596714 0.0059567666613 0.011660290882
          -0.017440509051 -0.033412784338 0.0067263599485 0.037164151669 0.021423764527 0.014515067451
          -0.00040398421697 -0.018686145544 0.043251026422 -0.015284013934 -0.038032725453 -0.044061165303
          0.032664526254 -0.012625531293 0.0060138548724 0.011737912893 -0.017700269818 -0.033817686141
          0.0068511338905 0.037927370518 0.021765163168 0.014843603596 -0.00042513525113 -0.01905538328
          0.043954916298 -0.015651291236 -0.038843534887 -0.044807612896 0.033032309264 -0.012792228721
          0.0061204554513 0.011928360909 -0.017941707745 -0.034295521677 0.0069703538902 0.038503695279
          0.022103341296 0.015080541372 -0.00041298777796 -0.019317200407 0.044619109482 -0.015863226727
          -0.039396513253 -0.045447584242 0.033535357565 -0.012999489903 0.0062768999487 0.012230414897
          -0.018162544817 -0.034841328859 0.0070853824727 0.038896266371 0.02243877016 0.015228467062
          -0.00036653073039 -0.019470985979 0.045243535191 -0.015920329839 -0.039692856371 -0.045978996903
          0.034170810133 -0.013237642124 0.0064786891453 0.01263138745 -0.018358957022 -0.035437881947
          0.0071976766922 0.039120320231 0.02276959829 0.015296748839 -0.00028714057407 -0.019522551447
          0.045825853944 -0.015834415331 -0.039751023054 -0.046402286738 0.034919135273 -0.013490710407
          0.0067168935202 0.01310783904 -0.018525507301 -0.036056112498 0.0073089310899 0.039202749729
          0.023091906682 0.01530136168 -0.0001783118787 -0.019483651966 0.046361729503 -0.015627902001
          -0.039605721831 -0.046720132232 0.035745102912 -0.013736867346 0.0069788321853 0.013626975939
          -0.018655052409 -0.036656200886 0.007421316579 0.039181090891 0.023400191218 0.015264408663
          -4.5197055442e-05 -0.019371174276 0.046845279634 -0.015332435258 -0.039305958897 -0.046937007457
          0.03659972921 -0.01394926291 0.0072492309846 0.014148777351 -0.018738951534 -0.037189345807
          0.0075375870802 0.039101798087 0.023687969893 0.015213259496 0.00010602449765 -0.019205648452
          0.047269720584 -0.014986808412 -0.038911972195 -0.047058545053 0.037423253059 -0.014096140862
          0.0075108041056 0.014627697878 -0.01876600273 -0.037598513067 0.0076620383188 0.03901958093
          0.023948578164 0.015180381015 0.00026891767629 -0.019010791555 0.047628138214 -0.014635299332
          -0.038492947817 -0.047090757638 0.038147363812 -0.014144278131 0.0077476194128 0.015017887577
          -0.01872559078 -0.037824593484 0.0077988901176 0.038991302252 0.024176029488 0.015199864283
          0.00043766823364 -0.018808593974 0.047914355993 -0.014322492294 -0.038119126111 -0.047039173543
          0.038703016937 -0.014052188955 0.0079417871311 0.015267858282 -0.018599817529 -0.037795230746
          0.0079575143754 0.03908636421 0.02436597459 0.015314687043 0.00060803390807 -0.018625281751
          0.048123907298 -0.014098150656 -0.037871040404 -0.046907879412 0.039012018591 -0.007107227575
          0.0035192694049 0.0070980950259 -0.0090857679024 -0.018779737875 0.0033040917479 0.016964117065
          0.011060766876 0.006222342141 2.2059068215e-05 -0.0086664268747 0.022248458117 -0.006131472066
          -0.01685671322 -0.02208272554 0.018787264824 0.00053654570365 0.0031181583181 0.0013482321519
          -1.2893032363e-05 -0.0014604802709 -0.0012934221886 -0.0032096349169 0.011408349499 -0.00576524809
          -0.011839937419 0.011762804352 -0.0059916158207 -0.012238598429 0.014003798366 0.014596953057
          0.028987886384 0.030223915353 -0.0050846040249 -0.02542026341 -0.017089447007 -0.0054361517541
          -0.027338705957 -0.018000366166 -0.0092407828197 -0.010165574029 -0.00021363374253 -0.00022465834627
          0.01290003676 0.013702483848 -0.033952660859 -0.035769373178 0.008909702301 0.0097384173423
          0.024924466386 0.026843260974 0.033507890999 0.035316959023 -0.029341403395 -0.030631938949
          0.011982547119 -0.0060916123912 -0.012391558848 0.015004959889 0.030848650262 -0.0056157130748
          -0.028435355052 -0.018504457548 -0.010632522404 -0.00019456789596 0.014234736562 -0.036810617894
          0.010272744112 0.028009686619 0.036418359727 -0.031202986836 0.012134501711 -0.0061267274432
          -0.012396970764 0.015435709618 0.031432755291 -0.0058163348585 -0.0298360046 -0.01904889755
          -0.011241169646 -0.00012446270557 0.014934216626 -0.037977308035 0.011009110138 0.029562452808
          0.037726558745 -0.031657289714 0.012239270844 -0.0061109620146 -0.012298381887 0.015840021893
          0.031874168664 -0.0059891007841 -0.031207241118 -0.01951816678 -0.011846147478 -2.6966516089e-05
          0.015643339604 -0.039008263499 0.011800062843 0.031143799424 0.038953125477 -0.031919263303
          0.012305141427 -0.006058790721 -0.012129500508 0.016216143966 0.032227069139 -0.0061458675191
          -0.032570786774 -0.019939793274 -0.012451722287 8.5838146333e-05 0.016357565299 -0.03996585682
          0.0126199238 0.032749395818 0.040137317032 -0.032062381506 0.012353560887 -0.0059939082712
          -0.011936923489 0.016569713131 0.032528586686 -0.0062898113392 -0.03387818858 -0.020326204598
          -0.013034283184 0.00020176252292 0.017048958689 -0.040853943676 0.013423337601 0.034305106848
          0.041258089244 -0.032148204744 0.012401401065 -0.0059350477532 -0.011761760339 0.016899870709
          0.032814923674 -0.0064238286577 -0.035092703998 -0.020687222481 -0.013574761339 0.00030900893034
          0.017691176385 -0.041683159769 0.014168146066 0.035749293864 0.042302574962 -0.03223490715
          0.012464649044 -0.0059002581984 -0.011641886085 0.017207907513 0.033118989319 -0.0065509555861
          -0.03617997095 -0.0210329853 -0.01405561436 0.00039700377965 0.018261160702 -0.042462512851
          0.014816459268 0.037025287747 0.043258558959 -0.032375451177 0.012555818073 -0.0059040747583
          -0.011607933789 0.017494086176 0.033466961235 -0.0066737108864 -0.037112493068 -0.021371526644
          -0.014462837949 0.00045694169239 0.018739752471 -0.043199434876 0.015337290242 0.03808702901
          0.044115833938 -0.03261269629 0.012682967819 -0.0059569412842 -0.011681347154 0.017758084461
          0.033876106143 -0.0067942640744 -0.037871506065 -0.021708706394 -0.014787171967 0.00048232171685
          0.019113233313 -0.043899107724 0.01570879668 0.038902100176 0.044866550714 -0.032976262271
          0.012848775834 -0.0060644373298 -0.011872694828 0.017998641357 0.034353066236 -0.0069143781438
          -0.038448739797 -0.022047786042 -0.015025009401 0.00046928378288 0.019374171272 -0.044564209878
          0.015919849277 0.03945421055 0.045505657792 -0.033480219543 0.013049984351 -0.0062269521877
          -0.012180817313 0.018213417381 0.034892823547 -0.0070354747586 -0.038847394288 -0.022389298305
          -0.015178996138 0.00041675785906 0.019521895796 -0.045194733888 0.015970900655 0.039744500071
          0.046031009406 -0.034121762961 0.013277187012 -0.0064397221431 -0.012592761777 0.018398856744
          0.03547840938 -0.0071587450802 -0.039082437754 -0.022731119767 -0.015258235857 0.00032638653647
          0.019562484697 -0.04578807205 0.015874028206 0.039791688323 0.046443317086 -0.034881096333
          0.013514959253 -0.0066932607442 -0.013084533624 0.018550075591 0.036081321537 -0.0072853276506
          -0.039180211723 -0.023068783805 -0.015278149396 0.00020222070452 0.019508248195 -0.046339329332
          0.015652205795 0.039631046355 0.046745810658 -0.035722434521 0.013742252253 -0.0069741061889
          -0.013622560538 0.018660716712 0.036662518978 -0.0074166129343 -0.039177462459 -0.023395992815
          -0.015260063112 5.0195514632e-05 0.019376859069 -0.046841837466 0.015337861143 0.039312358946
          0.046943757683 -0.036596000195 0.013933131471 -0.0072660637088 -0.014165901579 0.018723057583
          0.03717411682 -0.0075544347055 -0.039119731635 -0.023705350235 -0.015230431221 -0.00012258937932
          0.01918976754 -0.047287888825 0.01497070305 0.038896795362 0.047043707222 -0.037441123277
          0.014056784101 -0.007550900802 -0.01466806978 0.018726846203 0.037560027093 -0.0077021433972
          -0.039060775191 -0.023989237845 -0.015220778994 -0.00030875057564 0.018971640617 -0.047669608146
          0.014595953748 0.03845448792 0.047052629292 -0.038188524544 0.014080828987 -0.0078118341044
          -0.015082366765 0.018662314862 0.037761993706 -0.0078631080687 -0.039056614041 -0.024240817875
          -0.015264352784 -0.00050162244588 0.018745318055 -0.047979976982 0.014259045944 0.038056533784
          0.046976909041 -0.038768321276 0.013964395039 -0.0080303577706 -0.01535668876 0.018512185663
          0.037708278745 -0.0080460850149 -0.039176031947 -0.02445512265 -0.015403520316 -0.00069634418469
          0.018537651747 -0.048213891685 0.014010356739 0.037784088403 0.046821251512 -0.039101682603
          0.0070138685405 -0.0036095066462 -0.0071911797859 0.0089969532564 0.01868538186 -0.0033918689005
          -0.017056148499 -0.011151047423 -0.0063095199876 -0.00010834524437 0.0085798660293 -0.022344727069
          0.0060446788557 0.016764804721 0.021986326203 -0.018884295598 -0.00064490525983 -0.0032172934152
          -0.001451114309 -0.00010152339382 0.001349175931 0.0011902886909 0.003110632766 0.0017204841133
          -4.1679275455e-05 -0.0018056954723 -0.0010269311024 -4.3837080739e-05 0.00094062229618 -4.4221193093e-05
          0.00096868729452 -4.5109267376e-05 0.0016762103187 -0.0017701217439 -4.7749999794e-05 -0.0010604934068
          4.8664191127e-05 -3.0845847505e-05 -0.0001108450524 -7.7625118138e-05 -3.1928011595e-05 1.307286675e-05
          -3.2865300454e-05 -8.5320328935e-07 -3.3680677006e-05 4.8416037316e-05 -0.00011715758592 -3.469729927e-05
          -6.5598309448e-05 -0.00099144107662 -1.8968425138e-05 0.00095285463613 0.00050210993504 -1.9888166207e-05
          -0.00054213951807 -2.0388199118e-05 -0.0005411109305 -2.0909148589e-05 -0.00099396437872 0.00095089222305
          -2.1792637199e-05 0.00049919716548 -0.0019241970731 -8.907270967e-06 0.0019059893675 0.0010333193932
          -9.4873439593e-06 -0.0010527559789 -9.8555310615e-06 -0.0010551707819 -1.0190745343e-05 -0.0019267633324
          0.0019056528108 -1.0683753317e-05 0.0010346695781 -0.0036729788408 -2.1703062885e-06 0.0036683331709
          0.0019831978716 -2.4903390567e-06 -0.0019888354 -2.6647339837e-06 -0.0019903590437 -2.8139115784e-06
          -0.0036743870005 0.0036683783401 -3.0122357657e-06 0.0019841876347 0 0
          0 0 0 0 0 0
          0 0 0 0 0
        </DataArray>
        <DataArray type="Float32" Name="uy" format="ascii" RangeMin="-1.1283780336" RangeMax="0.75496554375">
          -0.86001241207 -0.87925368547 -0.88508552313 -0.85230493546 -0.86001390219 -0.88505983353
          -0.87928271294 -0.85967952013 -0.87438005209 -0.86136198044 -0.85195291042 -0.8744071722
          -0.85969495773 -0.86136561632 -0.87392699718 -0.86128342152 -0.87390631437 -0.86127310991
          -0.89257103205 -0.87478542328 -0.89258813858 -0.89148515463 -0.89154088497 -0.89167279005
          -0.8744122982 -0.89175462723 -0.84880179167 -0.80856537819 -0.79104733467 -0.80860501528
          -0.91698610783 -0.89924788475 -0.91708475351 -0.78410315514 -0.8923920393 -0.79379570484
          -0.9023039937 -0.75749409199 -0.75241351128 -0.77341276407 -0.86670780182 -0.86137610674
          -0.88187193871 -0.74158996344 -0.85148257017 -0.77394092083 -0.88244020939 -0.76337391138
          -0.87220960855 -0.77188181877 -0.88029938936 -0.74153780937 -0.85143440962 -0.75242501497
          -0.86132335663 -0.77191859484 -0.88034152985 -0.79380387068 -0.90227222443 -0.65775310993
          -0.63960832357 -0.65779954195 -0.63249844313 -0.64280664921 -0.6047347188 -0.59968447685
          -0.62144446373 -0.58801883459 -0.62188303471 -0.61094737053 -0.62021416426 -0.58798098564
          -0.59968227148 -0.6202429533 -0.64281064272 -0.47143006325 -0.45298588276 -0.47145754099
          -0.4458155334 -0.45660915971 -0.41699174047 -0.41212615371 -0.43450963497 -0.39948132634
          -0.43479818106 -0.42357003689 -0.43368816376 -0.3994551599 -0.41212853789 -0.43370819092
          -0.45661246777 -0.26164975762 -0.2429357022 -0.26166129112 -0.23574030399 -0.24707128108
          -0.20586498082 -0.20124725997 -0.22421361506 -0.1875154376 -0.22432646155 -0.21283006668
          -0.22389391065 -0.18750569224 -0.20124806464 -0.22390189767 -0.24707245827 -0.042617172003
          -0.023699689656 -0.04260969907 -0.016508137807 -0.028367398307 0.014390824363 0.01871516183
          -0.0047885803506 0.03357033059 -0.0047076204792 0.0070330700837 -0.0050158775412 0.033562529832
          0.018713930622 -0.0050111156888 -0.028366884217 0.17009611428 0.18918699026 0.17012222111
          0.19636207819 0.18399141729 0.2282320112 0.23225578666 0.20825390518 0.2482123822
          0.20852868259 0.22049339116 0.20747816563 0.24818690121 0.23225453496 0.2074957788
          0.18399372697 0.36089745164 0.38015255332 0.36094084382 0.3873142302 0.37446919084
          0.42008852959 0.42383569479 0.39936819673 0.44081237912 0.39982199669 0.41199654341
          0.39808633924 0.44077059627 0.42383432388 0.39811581373 0.37447312474 0.51540064812
          0.53483229876 0.51545852423 0.54199749231 0.52873033285 0.57559335232 0.57911753654
          0.55421131849 0.59698009491 0.55481541157 0.56718993187 0.5525046587 0.59692460299
          0.57911604643 0.55254405737 0.52873557806 0.62153571844 0.6411730051 0.62160420418
          0.64836978912 0.63474565744 0.68269205093 0.6860704422 0.66074806452 0.70464158058
          0.66146254539 0.6740309 0.65872943401 0.70457607508 0.68606889248 0.65877616405
          0.63475191593 0.67044705153 0.69033050537 0.67052155733 0.69759458303 0.68368762732
          0.73253917694 0.73586517572 0.71014624834 0.75493812561 0.71092355251 0.72368198633
          0.70795029402 0.75486689806 0.735863626 0.70800119638 0.68369442225 0.65711140633
          0.67728662491 0.65718698502 0.68465715647 0.67054569721 0.7201154232 0.72348982096
          0.69739300013 0.74284380674 0.69818198681 0.71112781763 0.69516432285 0.74277162552
          0.72348839045 0.69521605968 0.67055261135 0.58062434196 0.60113489628 0.58069622517
          0.60864979029 0.59441161156 0.64451336861 0.64803493023 0.62157982588 0.66745239496
          0.62233042717 0.63546019793 0.61946046352 0.66738379002 0.64803355932 0.61950969696
          0.59441822767 0.44412615895 0.46500635147 0.44418993592 0.47269782424 0.45840469003
          0.50886303186 0.51261866093 0.48582816124 0.53190267086 0.48649570346 0.4998036325
          0.48394447565 0.53184181452 0.51261740923 0.48398819566 0.45841059089 0.25436106324
          0.27562946081 0.25441342592 0.28351929784 0.26923236251 0.31989219785 0.32394751906
          0.29684966803 0.34293836355 0.29739940166 0.31087592244 0.29530018568 0.34288838506
          0.32394650578 0.29533612728 0.26923727989 0.020889377221 0.042542580515 0.020928271115
          0.050638418645 0.036403764039 0.087138473988 0.091529920697 0.064159527421 0.11011963338
          0.0645705387 0.078200750053 0.063004024327 0.11008254439 0.091529101133 0.063030801713
          0.036407493055 -0.24500986934 -0.22300218046 -0.24498486519 -0.21471004188 -0.22886481881
          -0.17814658582 -0.17341849208 -0.20101818442 -0.15527392924 -0.20075030625 -0.18698738515
          -0.20176760852 -0.1552977711 -0.17341908813 -0.20175030828 -0.22886234522 -0.53169047832
          -0.50938904285 -0.53167808056 -0.50093084574 -0.51499992609 -0.46434757113 -0.45932450891
          -0.48710107803 -0.44159534574 -0.48695996404 -0.47309353948 -0.48748728633 -0.44160714746
          -0.45932501554 -0.48747840524 -0.51499843597 -0.82867699862 -0.80617541075 -0.82867348194
          -0.79760074615 -0.81159979105 -0.76102232933 -0.75578725338 -0.78367781639 -0.73836743832
          -0.78363031149 -0.76969456673 -0.78380054235 -0.73837071657 -0.75578737259 -0.78379803896
          -0.81159937382 -1.1283388138 -1.1057653427 -1.1283388138 -1.0971497297 -1.1111222506
          -1.0605750084 -1.0552630424 -1.083194375 -1.0379582644 -1.0831793547 -1.0692205429
          -1.0832207203 -1.0379582644 -1.0552639961 -1.0832192898 -1.1111212969 -0.95537364483
          -0.93840551376 -0.95554172993 -0.93219411373 -0.94178342819 -0.91043037176 -0.90589153767
          -0.92316436768 -0.8975379467 -0.92363399267 -0.91504222155 -0.9221637845 -0.89755648375
          -0.90582585335 -0.92212498188 -0.94157785177 -0.90279173851 -0.90532106161 -0.91200834513
          -0.89271903038 -0.89906901121 -0.91208666563 -0.90543174744 -0.91699939966 -0.89925831556
          -0.9170974493 -0.80857855082 -0.7910605669 -0.80861854553 -0.89240533113 -0.78411537409
          -0.90231692791 -0.79380840063 -0.86671864986 -0.86138677597 -0.88188242912 -0.75750571489
          -0.75242477655 -0.77342504263 -0.85149258375 -0.7416011095 -0.88245135546 -0.77395319939
          -0.87222087383 -0.76338583231 -0.88030791283 -0.77189445496 -0.85144430399 -0.74154913425
          -0.8613333106 -0.7524368763 -0.88035672903 -0.77192986012 -0.90228319168 -0.79381710291
          -0.65776497126 -0.63961946964 -0.65781146288 -0.63250935078 -0.64281773567 -0.60474467278
          -0.59969419241 -0.62145501375 -0.58802819252 -0.62189358473 -0.61095750332 -0.62022459507
          -0.58799034357 -0.59969198704 -0.62025350332 -0.64282202721 -0.47143808007 -0.45299330354
          -0.47146564722 -0.44582265615 -0.45661661029 -0.41699787974 -0.41213205457 -0.4345163703
          -0.39948680997 -0.43480494618 -0.42357641459 -0.43369489908 -0.39946073294 -0.41213455796
          -0.43371483684 -0.45662006736 -0.26165255904 -0.24293784797 -0.26166415215 -0.23574218154
          -0.24707351625 -0.20586581528 -0.20124794543 -0.22421510518 -0.18751564622 -0.22432795167
          -0.21283112466 -0.22389538586 -0.18750590086 -0.20124872029 -0.22390332818 -0.24707478285
          -0.042613927275 -0.023695759475 -0.042606431991 -0.016503946856 -0.028363635764 0.01439609006
          0.0187205486 -0.0047839861363 0.033576250076 -0.0047030169517 0.0070381076075 -0.0050112921745
          0.033568501472 0.018719416112 -0.0050064777024 -0.028363099322 0.17010556161 0.18919716775
          0.17013175786 0.1963724941 0.18400135636 0.2282435596 0.23226739466 0.20826475322
          0.24822458625 0.20853954554 0.22050471604 0.20748898387 0.24819920957 0.23226633668
          0.20750664175 0.18400378525 0.36091265082 0.38016852736 0.36095616221 0.38733041286
          0.37448486686 0.42010587454 0.42385306954 0.39938479662 0.44083037972 0.39983862638
          0.41201364994 0.39810290933 0.44078874588 0.42385196686 0.39813241363 0.37448897958
          0.51542055607 0.53485304117 0.51547861099 0.54201841354 0.52875065804 0.57561546564
          0.57913959026 0.55423271656 0.59700286388 0.55483680964 0.56721180677 0.55252593756
          0.59694755077 0.57913851738 0.55256539583 0.52875620127 0.62155884504 0.64119696617
          0.62162750959 0.648393929 0.63476914167 0.68271738291 0.68609571457 0.66077262163
          0.70466762781 0.66148716211 0.67405599356 0.65875393152 0.70460230112 0.68609464169
          0.65880072117 0.63477575779 0.67047148943 0.69035583735 0.67054623365 0.69762009382
          0.68371248245 0.73256593943 0.735891819 0.71017217636 0.75496554375 0.71094954014
          0.7237085104 0.70797616243 0.75489455462 0.73589074612 0.7080271244 0.68371969461
          0.65713512897 0.67731118202 0.65721094608 0.6846818924 0.67056983709 0.72014147043
          0.72351580858 0.6974182725 0.74287056923 0.69820731878 0.71115368605 0.69518953562
          0.74279862642 0.7235147953 0.69524127245 0.67057716846 0.5806452632 0.60115665197
          0.58071732521 0.6086717248 0.59443289042 0.64453655481 0.64805811644 0.62160223722
          0.66747635603 0.62235289812 0.63548314571 0.61948281527 0.6674079895 0.64805716276
          0.6195320487 0.59443992376 0.444142133 0.46502321959 0.44420614839 0.47271487117
          0.45842111111 0.50888139009 0.51263695955 0.48584571481 0.53192174435 0.48651331663
          0.49982175231 0.48396196961 0.53186112642 0.51263612509 0.48400571942 0.45842736959
          0.25437036157 0.2756395936 0.25442290306 0.28352966905 0.26924213767 0.31990385056
          0.32395923138 0.29686054587 0.34295076132 0.29741030931 0.31088733673 0.29531100392
          0.34290099144 0.32395851612 0.29534697533 0.26924732327 0.020890476182 0.042544525117
          0.020929498598 0.05064060539 0.036405373365 0.087141953409 0.091533467174 0.064162217081
          0.11012388021 0.06457324326 0.078203968704 0.063006669283 0.11008691788 0.091532871127
          0.063033461571 0.036409303546 -0.24501809478 -0.22300957143 -0.24499300122 -0.21471716464
          -0.22887249291 -0.17815241218 -0.17342421412 -0.20102480054 -0.15527898073 -0.20075692236
          -0.18699349463 -0.20177425444 -0.15530273318 -0.17342466116 -0.20175695419 -0.22886988521
          -0.53170871735 -0.50940644741 -0.53169625998 -0.50094801188 -0.51501756907 -0.46436345577
          -0.45934024453 -0.48711773753 -0.44161042571 -0.48697662354 -0.47310969234 -0.48750397563
          -0.44162216783 -0.45934066176 -0.48749506474 -0.51501601934 -0.82870566845 -0.80620324612
          -0.82870215178 -0.7976282835 -0.81162786484 -0.76104861498 -0.75581330061 -0.7837048769
          -0.7383928895 -0.783657372 -0.7697211504 -0.78382760286 -0.73839616776 -0.75581341982
          -0.78382509947 -0.811627388 -1.1283780336 -1.1058037281 -1.1283780336 -1.0971877575
          -1.1111608744 -1.0606118441 -1.0552996397 -1.083231926 -1.0379942656 -1.0832169056
          -1.069257617 -1.0832582712 -1.0379941463 -1.0553005934 -1.0832568407 -1.1111599207
          -0.95537656546 -0.93841654062 -0.95554751158 -0.93219274282 -0.94178318977 -0.91043633223
          -0.90589851141 -0.92317378521 -0.8975455761 -0.92364042997 -0.91504627466 -0.92218178511
          -0.89756512642 -0.90583413839 -0.92211258411 -0.94158768654 -0.90279972553 -0.90531975031
          -0.91201657057 -0.89271593094 -0.89908319712 -0.91208970547 -0.90543460846 -0.7124465704
          -0.71239846945 -0.71244335175 -0.71353888512 -0.71281951666 -0.7135412097 -0.7129342556
          -0.71347558498 -0.71276170015 -0.71252071857 -0.71252739429 -0.7125544548 -0.71348136663
          -0.52272444963 -0.52245664597 -0.52272236347 -0.52300280333 -0.52294069529 -0.52300709486
          -0.52301037312 -0.52301311493 -0.52295094728 -0.52270042896 -0.52270191908 -0.52241671085
          -0.52301675081 -0.32669743896 -0.32724544406 -0.32669556141 -0.32558691502 -0.32615602016
          -0.32558956742 -0.32597669959 -0.3255867362 -0.32615557313 -0.32670328021 -0.32670500875
          -0.32725736499 -0.32558938861 -0.15868793428 -0.15958210826 -0.15868669748 -0.15651488304
          -0.15769171715 -0.15651673079 -0.15730294585 -0.15651521087 -0.15769223869 -0.15868645906
          -0.15868721902 -0.15958099067 -0.15651676059 -0.045953612775 -0.047877375036 -0.045952670276
          -0.041808191687 -0.043819095939 -0.041809253395 -0.043076839298 -0.041808973998 -0.04381961748
          -0.045954488218 -0.045954558998 -0.04787921533 -0.04180951789 0 0
          0 0 0 0 0 0
          0 0 0 0 0
        </DataArray>
        <DataArray type="Float32" Name="uz" format="ascii" RangeMin="-0.16865329444" RangeMax="0.16833047569">
          -0.011905519292 0.0057727936655 -0.013880606741 -0.015589435585 -0.011907632463 -0.013891455717
          0.0058024888858 0.011878465302 0.029408041388 0.031094744802 0.015769416466 0.029376104474
          0.011894999072 0.031084923074 -0.029644943774 -0.031049313024 -0.029663853347 -0.031044129282
          0.015211740509 0.035836555064 0.015182329342 0.030296325684 0.030253177509 -0.030012290925
          -0.035681962967 -0.029969805852 -0.00017042297986 0.022462511435 -0.011430280283 -0.022811792791
          0.014962763526 -0.00777911162 -0.015295800753 0.029338885099 0.019674057141 0.059116903692
          0.039154227823 -0.01145725511 -0.059475217015 -0.036640964448 -0.0074180532247 -0.038071323186
          -0.024420721456 -0.022873206064 -0.014287306927 -0.00016142698587 -0.00015601982886 0.029392758384
          0.019134262577 -0.073413327336 -0.048215180635 0.022535951808 0.014057672583 0.059201162308
          0.037753660232 0.073047429323 0.047963105142 -0.059392746538 -0.039621338248 0.029246285558
          -0.014809172601 -0.029548689723 0.038214117289 0.076846554875 -0.014827583916 -0.077163368464
          -0.047594457865 -0.029603246599 -0.00016201791004 0.038203898817 -0.09537191689 0.029226092622
          0.076860845089 0.094991184771 -0.077106945217 0.03433810547 -0.017318075523 -0.03462029621
          0.044802282006 0.090153776109 -0.017353193834 -0.090407073498 -0.055732183158 -0.034683290869
          -0.00016425309877 0.044780787081 -0.1117657572 0.034261297435 0.090095825493 0.11136162281
          -0.090375892818 0.037156682462 -0.018712637946 -0.037422649562 0.048463791609 0.097523204982
          -0.018757838756 -0.097787201405 -0.060257442296 -0.03751629591 -0.00016583396064 0.048434715718
          -0.12088272721 0.037065394223 0.097468942404 0.12046444416 -0.097728282213 0.037396010011
          -0.018826024607 -0.037656694651 0.048763666302 0.098146319389 -0.018877105787 -0.098407886922
          -0.060630548745 -0.037758938968 -0.00016747404879 0.048732705414 -0.12165079266 0.037293870002
          0.098082832992 0.12122537196 -0.098344713449 0.034936029464 -0.01760187 -0.03520007059
          0.045551918447 0.091706708074 -0.017651839182 -0.091974109411 -0.056663863361 -0.035300847143
          -0.00016896035231 0.045520834625 -0.11369499564 0.034835252911 0.091644391418 0.11327001452
          -0.091911941767 0.029878584668 -0.01508943364 -0.030154451728 0.038959536701 0.078472442925
          -0.015133469366 -0.078750982881 -0.048520766199 -0.030243074521 -0.00017035302881 0.03893237561
          -0.097344353795 0.029790079221 0.078417696059 0.096926830709 -0.078696236014 0.022528911009
          -0.011440011673 -0.022823806852 0.029383322224 0.059241212904 -0.011473358609 -0.059535291046
          -0.036690823734 -0.022890975699 -0.00017163412122 0.029362702742 -0.073584288359 0.022461805493
          0.059199701995 0.073180265725 -0.059493817389 0.013365663588 -0.0068907826208 -0.013685310259