<VTKFile type="UnstructuredGrid" version="1.0" byte_order="LittleEndian" header_type="UInt64">
  <UnstructuredGrid>
    <Piece NumberOfPoints="791" NumberOfCells="973">
      <PointData>
        <DataArray type="Float32" Name="ux" format="ascii" RangeMin="-0.32783824205" RangeMax="0.35539394617">
          0.0528533943 -0.040308348835 0.085596859455 0.066984012723 0.053653080016 0.0859073475
          -0.039999812841 -0.066962331533 -0.20588614047 -0.16421288252 -0.080540798604 -0.20538979769
          -0.066192016006 -0.16401477158 0.19358128309 0.1510836035 0.19438758492 0.15141582489
          -0.11786951125 -0.20481997728 -0.11821092665 -0.23132273555 -0.23171542585 0.22217151523
          0.19311419129 0.22214694321 -0.0070575210266 0.075872853398 -0.033405315131 -0.06993945688
          0.07037768513 -0.038037899882 -0.074247255921 0.098241396248 0.092860490084 0.19355179369
          0.18755964935 -0.03313620761 -0.18675346673 -0.11455416679 -0.037916112691 -0.19113400578
          -0.11893632263 -0.069190055132 -0.073926024139 0.0030453440268 -0.0018338633236 0.098116748035
          0.092934764922 -0.23214355111 -0.23611237109 0.075721144676 0.07077768445 0.19302211702
          0.18772186339 0.23815001547 0.23238520324 -0.18762882054 -0.19147257507 0.081670723855
          -0.027994157746 -0.064774140716 0.10410449654 0.19981282949 -0.027614077553 -0.18159306049
          -0.10932590812 -0.063698649406 0.0086351698264 0.10395544767 -0.22733193636 0.08142144978
          0.19897703826 0.2444036454 -0.18289275467 0.08813855052 -0.022099737078 -0.05910000205
          0.11059363186 0.20686507225 -0.021752364933 -0.17621292174 -0.10380721092 -0.057975392789
          0.014653027989 0.11035470665 -0.22226262093 0.087635964155 0.20570728183 0.25147652626
          -0.17775556445 0.095425084233 -0.015292187221 -0.052537556738 0.11800641567 0.21466831863
          -0.014849209227 -0.16985629499 -0.097238510847 -0.051143158227 0.021679226309 0.11770182103
          -0.21616503596 0.094863340259 0.21335597336 0.25940415263 -0.1716440022 0.10186720639
          -0.0090943258256 -0.046417016536 0.12454853952 0.22151593864 -0.0086309807375 -0.16394819319
          -0.091166764498 -0.045054294169 0.027977228165 0.12424623221 -0.21028316021 0.10127940774
          0.22015634179 0.26641732454 -0.165699929 0.10761938244 -0.00379259279 -0.041213836521
          0.130305022 0.22763028741 -0.0034258782398 -0.15931469202 -0.086237870157 -0.040049295872
          0.033354829997 0.12992312014 -0.20580621064 0.10684853047 0.2261492759 0.27261611819
          -0.16102719307 0.11179716885 -6.9930334575e-05 -0.037528831512 0.13448914886 0.23216731846
          0.0001455648744 -0.15637521446 -0.082904219627 -0.036630477756 0.037131480873 0.13408738375
          -0.20290502906 0.11088418961 0.23069864511 0.27731904387 -0.15781895816 0.11486294121
          0.0030040587299 -0.034408897161 0.13759611547 0.2352514267 0.0031191958115 -0.15356494486
          -0.079922832549 -0.033725392073 0.040206495672 0.13721932471 -0.20004950464 0.11400558054
          0.23393544555 0.28051763773 -0.1547908783 0.11699660867 0.0056125293486 -0.031791254878
          0.13984891772 0.23717014492 0.0058842110448 -0.15052838624 -0.077026844025 -0.030951861292
          0.042808447033 0.13961574435 -0.19681222737 0.11651668698 0.23620735109 0.28253772855
          -0.15165491402 0.11663431674 0.0058582662605 -0.031344503164 0.13944776356 0.23625129461
          0.0061058402061 -0.14954312146 -0.076351225376 -0.030616998672 0.042863748968 0.13925695419
          -0.19548687339 0.11621119827 0.23543258011 0.28152772784 -0.15054909885 0.11169394851
          0.0017479798989 -0.035159409046 0.13434796035 0.23043203354 0.0019003343768 -0.15263296664
          -0.079910501838 -0.034553140402 0.038436893374 0.13411992788 -0.1982281357 0.11125194281
          0.2296320498 0.27538448572 -0.15354645252 0.10296060145 -0.0062744794413 -0.042902629822
          0.12543906271 0.22089317441 -0.0060886302963 -0.1595980674 -0.087363399565 -0.042247969657
          0.030191106722 0.1252745837 -0.20484830439 0.10260231048 0.22014811635 0.26551005244
          -0.16050605476 0.091452777386 -0.017072668299 -0.053372558206 0.1137695387 0.20854446292
          -0.016987472773 -0.16971322894 -0.097757056355 -0.053083281964 0.01912439242 0.113618806
          -0.21455173194 0.091109871864 0.20802463591 0.25299978256 -0.1702645123 0.077438645065
          -0.030338233337 -0.066326551139 0.099710978568 0.19381548464 -0.030230402946 -0.1822925657
          -0.11057398468 -0.066101796925 0.0056559098884 0.099667847157 -0.22680342197 0.07745552063
          0.19368758798 0.23818530142 -0.18256901205 0.062747515738 -0.044525340199 -0.080349214375
          0.084931142628 0.17853230238 -0.044511537999 -0.19613906741 -0.12454628944 -0.080280125141
          -0.0087338835001 0.085024237633 -0.24031792581 0.062949672341 0.17869587243 0.22280703485
          -0.19611564279 0.048063971102 -0.058838728815 -0.094405502081 0.070076927543 0.16332019866
          -0.058875519782 -0.20985233784 -0.13853882253 -0.094511553645 -0.023234672844 0.070061780512
          -0.25387251377 0.048058215529 0.16340579093 0.20741927624 -0.20975676179 0.033644042909
          -0.073101595044 -0.10866292566 0.055637009442 0.14877672493 -0.073154270649 -0.22390554845
          -0.1526850909 -0.10875499994 -0.037525258958 0.055655613542 -0.26784196496 0.03366997838
          0.14884771407 0.19278410077 -0.22383412719 0.01936985366 -0.087349243462 -0.12293089181
          0.041391052306 0.13454253972 -0.087317317724 -0.23803648353 -0.16688722372 -0.12292089313
          -0.051777593791 0.041419040412 -0.28197872639 0.019449193031 0.13459852338 0.17852625251
          -0.23800885677 0.0051159295253 -0.10159633309 -0.13711972535 0.027055241168 0.12016134709
          -0.10166531056 -0.25230190158 -0.18114756048 -0.13724336028 -0.066065318882 0.027039837092
          -0.29625093937 0.0050194342621 0.12018048018 0.16413547099 -0.25225648284 0.067273676395
          -0.040455970913 -0.07672136277 0.089274346828 0.18293295801 -0.039812967181 -0.19138643146
          -0.12011352181 -0.075401604176 -0.0043779811822 0.089390225708 -0.23597124219 0.067828394473
          0.18335883319 0.22712010145 -0.19225439429 -0.039372894913 -0.18862695992 -0.074312858284
          -0.004776168149 0.087725996971 0.066982127726 0.18038392067 0.084469631314 -0.024738593027
          -0.061151649803 0.09704002738 -0.01403099671 -0.051178645343 0.10709509999 0.12005487084
          0.20254978538 0.21705928445 -0.024824393913 -0.17933508754 -0.10633038729 -0.013990214095
          -0.17077247798 -0.096745692194 -0.061300963163 -0.051162179559 0.011676151305 0.023045618087
          0.10711773485 0.1200594753 -0.22438323498 -0.21644495428 0.084636159241 0.097004286945
          0.20272172987 0.21705292165 0.24772176147 0.26294884086 -0.17923519015 -0.17082184553
          0.10532195866 -0.0068135168403 -0.044458743185 0.12864230573 0.22667106986 -0.0067870547064
          -0.16509318352 -0.090324603021 -0.044387750328 0.030680276453 0.12856721878 -0.21119949222
          0.10513592511 0.22644665837 0.27296051383 -0.16523356736 0.1074641943 -0.0059641888365
          -0.044114883989 0.13102856278 0.23027098179 -0.0059748077765 -0.16584816575 -0.090349391103
          -0.04390347749 0.031925085932 0.13083262742 -0.21255615354 0.10703859478 0.22967842221
          0.27695417404 -0.16622060537 0.10142566264 -0.013252610341 -0.051804214716 0.12518563867
          0.22552470863 -0.013187352568 -0.17462766171 -0.098512895405 -0.051492940634 0.025027189404
          0.12494959682 -0.22198884189 0.10085235536 0.22472885251 0.27252852917 -0.17531974614
          0.08785776794 -0.028180966154 -0.067106440663 0.11165688187 0.21303525567 -0.028042118996
          -0.19093155861 -0.11429666728 -0.066488876939 0.010486688465 0.11136193573 -0.23897790909
          0.0871758461 0.21197800338 0.26027947664 -0.19191373885 0.070091105998 -0.046850319952
          -0.085938051343 0.093814827502 0.19590301812 -0.046726182103 -0.21059207618 -0.13357651234
          -0.085270747542 -0.0079971961677 0.093402884901 -0.25915753841 0.069172017276 0.19452500343
          0.24318659306 -0.21178174019 0.052021056414 -0.065677605569 -0.10499863327 0.075810991228
          0.17855845392 -0.065559484065 -0.23038579524 -0.15298232436 -0.10428994149 -0.026607429609
          0.075354583561 -0.27934330702 0.051021475345 0.17705841362 0.22602324188 -0.23167747259
          0.035799767822 -0.082699514925 -0.1221941188 0.059636451304 0.16297902167 -0.082457855344
          -0.24817508459 -0.17040936649 -0.12130182981 -0.043331190944 0.059209678322 -0.29751718044
          0.034768439829 0.16140311956 0.21063585579 -0.24963746965 0.022742753848 -0.096814073622
          -0.13662230968 0.046690121293 0.15091899037 -0.096561342478 -0.26366913319 -0.18531024456
          -0.13567537069 -0.057200722396 0.046198356897 -0.31348246336 0.021583665162 0.14915150404
          0.19879093766 -0.2652258873 0.014696237631 -0.10590469092 -0.14594766498 0.038759499788
          0.1438241303 -0.10560911894 -0.27410843968 -0.19511213899 -0.14494092762 -0.065916880965
          0.038261286914 -0.32442981005 0.013564309105 0.14198598266 0.1920337379 -0.27574157715
          0.012880680151 -0.10827636719 -0.14847533405 0.037014864385 0.14255924523 -0.10802283883
          -0.27732530236 -0.19793015718 -0.14755246043 -0.068167626858 0.036530848593 -0.32783824205
          0.011797918007 0.14080245793 0.19100773335 -0.27888163924 0.018842071295 -0.10206816345
          -0.14222703874 0.042927522212 0.14829362929 -0.10188749433 -0.27072039247 -0.19155648351
          -0.14126391709 -0.062057040632 0.042444866151 -0.32114073634 0.01768254675 0.14651635289
          0.19669294357 -0.27233290672 0.031862124801 -0.08826892823 -0.12820962071 0.055988695472
          0.16070562601 -0.088021382689 -0.25615525246 -0.17727057636 -0.12734495103 -0.048408485949
          0.05557404086 -0.30625671148 0.030930045992 0.15921647847 0.20900043845 -0.25758448243
          0.050673030317 -0.06914293021 -0.10904800147 0.074855178595 0.17939907312 -0.068954870105
          -0.2368530184 -0.15798129141 -0.10830436647 -0.02934220992 0.074517995119 -0.28667539358
          0.04992377758 0.17814928293 0.22781260312 -0.23804971576 0.073235869408 -0.046525597572
          -0.086433671415 0.09752946347 0.20198172331 -0.046444933861 -0.21461810172 -0.13549293578
          -0.085936069489 -0.0067443507724 0.097253985703 -0.26431816816 0.072582311928 0.20101712644
          0.25058177114 -0.21548691392 0.098283387721 -0.021434785798 -0.061339505017 0.12264832854
          0.22710056603 -0.021503152326 -0.18983674049 -0.11051172763 -0.061157763004 0.018300216645
          0.1223879233 -0.23933345079 0.097631208599 0.22633254528 0.27586492896 -0.19037297368
          0.12458886951 0.0050375959836 -0.034777529538 0.14906768501 0.25337234139 0.0050055393949
          -0.16346529126 -0.083977051079 -0.034782752395 0.04478276521 0.14891502261 -0.21275092661
          0.124225609 0.25295731425 0.3023404181 -0.16368320584 0.15109331906 0.03158710897
          -0.0082386760041 0.17566607893 0.27992519736 0.031556967646 -0.13703116775 -0.057459998876
          -0.0082642305642 0.071352921426 0.17555560172 -0.18627114594 0.15088109672 0.2796985209
          0.32902505994 -0.1371229738 0.17734433711 0.057897601277 0.01807544753 0.201971367
          0.30619007349 0.057933628559 -0.11073617637 -0.031102042645 0.018082207069 0.097734317183
          0.20200543106 -0.15994149446 0.17737931013 0.30622053146 0.35539394617 -0.11072219908
          0.068334028125 -0.037346478552 -0.074827060103 0.092184081674 0.18442797661 -0.034290801734
          -0.18506513536 -0.11546378583 -0.068435251713 -0.00017832925369 0.094039916992 -0.23087960482
          0.074448235333 0.18861015141 0.23034924269 -0.18874399364 -0.038496281952 -0.18732827902
          -0.07245863229 -0.0045869490132 0.088262960315 0.068673916161 0.18143774569 -0.13038016856
          -0.15886040032 -0.13039252162 -0.056572627276 -0.067954644561 -0.056659828871 -0.011301649734
          0.034176200628 0.045304205269 0.10790249705 0.10784382373 0.13632635772 0.034017242491
          -0.10177461803 -0.12266783416 -0.10214722902 -0.047490350902 -0.055679384619 -0.047121185809
          -0.013572395779 0.020352771506 0.028550677001 0.074983790517 0.074786148965 0.095544457436
          0.020410954952 -0.07452314347 -0.089308962226 -0.075040534139 -0.03675095737 -0.042471140623
          -0.036318641156 -0.01306527108 0.010624814779 0.016385907307 0.048856839538 0.04867612198
          0.063298910856 0.01072480157 -0.048038717359 -0.057279605418 -0.048454750329 -0.024584898725
          -0.028084693477 -0.024122610688 -0.0096869450063 0.0051019522361 0.0087671987712 0.029063310474
          0.029034022242 0.038066934794 0.0053184973076 -0.02182547003 -0.026093583554 -0.022170403972
          -0.011314468458 -0.012598581612 -0.010807326064 -0.0040081907064 0.0025074055884 0.0046190405264
          0.013980923221 0.014090931043 0.018265612423 0.0029128696769 0 0
          0 0 0 0 0 0
          0 0 0 0 0
        </DataArray>
        <DataArray type="Float32" Name="uy" format="ascii" RangeMin="-1.0679078102" RangeMax="1.2121373415">
          -0.12979564071 -0.11588985473 -0.10688333213 0.051420375705 0.23437027633 0.22191473842
          0.22806587815 -0.12969279289 -0.1228351146 -0.060472480953 0.051280453801 0.23306725919
          0.2341157347 0.16601020098 -0.1227415204 -0.060654658824 0.23323141038 0.16649776697
          -0.091777764261 0.054860167205 0.21135671437 -0.09217812866 0.2117587924 0.21154402196
          0.055028863251 -0.092311494052 0.050825107843 1.0638023615 0.95175439119 1.0637491941
          1.0284588337 0.91700065136 1.0284436941 0.9090513587 0.87451958656 0.97802364826
          0.9433568716 0.72820425034 0.70141339302 0.83972579241 0.69422405958 0.66767352819
          0.80546182394 0.61652350426 0.58287924528 0.8399310708 0.8056268096 0.77089947462
          0.73692327738 0.83931064606 0.8052714467 0.61668461561 0.58308303356 0.70182096958
          0.66816401482 0.83968400955 0.80569988489 0.97781670094 0.94319033623 1.0901263952
          0.97763097286 1.090072751 0.934679389 1.0038678646 0.75329953432 0.72626930475
          0.8650919199 0.64136129618 0.8653755784 0.79610061646 0.86447554827 0.64152759314
          0.7266587019 0.86489361525 1.0036424398 1.1024653912 0.98938423395 1.1023762226
          0.94631159306 1.0157011747 0.76411449909 0.73685085773 0.87627917528 0.65173506737
          0.87663936615 0.80709648132 0.87553083897 0.6519331336 0.73734647036 0.87610661983
          1.0153788328 1.0975618362 0.98400342464 1.0974283218 0.94070214033 1.0104169846
          0.75789219141 0.73056203127 0.87043273449 0.64523649216 0.87079972029 0.8010057807
          0.86965572834 0.64538377523 0.73099368811 0.87020927668 1.0099749565 1.0731855631
          0.95934724808 1.0730140209 0.91592460871 0.98582440615 0.7327119112 0.70540571213
          0.84556877613 0.61979109049 0.8459251523 0.77581828833 0.84482443333 0.61980050802
          0.70552545786 0.8451294899 0.98542791605 1.0297387838 0.91548883915 1.0296338797
          0.87189853191 0.94201290607 0.68798005581 0.66059887409 0.8012816906 0.57466340065
          0.80159127712 0.73123884201 0.80053293705 0.57462871075 0.66068077087 0.80082458258
          0.94172108173 0.96721374989 0.85262089968 0.96714448929 0.80884546041 0.87922084332
          0.62431365252 0.59686523676 0.73802256584 0.51049345732 0.73833465576 0.66770297289
          0.73739045858 0.51044476032 0.59686106443 0.7375870347 0.87898927927 0.88561517
          0.77099424601 0.88553881645 0.7272490859 0.79767298698 0.54250633717 0.51512145996
          0.6564091444 0.4285813868 0.65664678812 0.58599227667 0.65579736233 0.42855834961
          0.51514142752 0.65601015091 0.79748016596 0.78787088394 0.67356169224 0.78777450323
          0.62985599041 0.70018965006 0.44556710124 0.41835647821 0.55929327011 0.3319015801
          0.55943763256 0.48886469007 0.55878299475 0.33175575733 0.41819772124 0.5587952137
          0.70004361868 0.67649185658 0.56267470121 0.67622840405 0.51933026314 0.58944618702
          0.33584427834 0.30880630016 0.44898161292 0.2226805836 0.44921156764 0.37898564339
          0.4485257566 0.22251924872 0.30861258507 0.44871592522 0.58894777298 0.5528973937
          0.4398907125 0.55267357826 0.39689749479 0.46647638083 0.21469305456 0.18785916269
          0.32703974843 0.10237217695 0.32722911239 0.25755605102 0.32658624649 0.10222610086
          0.18773369491 0.32679715753 0.46597525477 0.41816589236 0.30597013235 0.41796690226
          0.26327902079 0.33235228062 0.082428947091 0.055847298354 0.19395944476 -0.029108211398
          0.19411161542 0.12499554455 0.19354911149 -0.029259609058 0.055670384318 0.19375056028
          0.33195489645 0.27336186171 0.16195522249 0.27319526672 0.11950726807 0.18821237981
          -0.060249872506 -0.086621493101 0.050662584603 -0.17122000456 0.050825219601 -0.017908470705
          0.050421968102 -0.17132538557 -0.086704902351 0.050578188151 0.18787094951 0.12188281864
          0.011197208427 0.12181183696 -0.03102715686 0.037337724119 -0.20991748571 -0.23606343567
          -0.099409028888 -0.32040193677 -0.099399976432 -0.16772635281 -0.099515981972 -0.320435673
          -0.23609824479 -0.099448919296 0.037191789597 -0.031413648278 -0.14149001241 -0.031452145427
          -0.18349687755 -0.1154409498 -0.36165419221 -0.38766914606 -0.25154832006 -0.47183188796
          -0.25153639913 -0.319522053 -0.25159201026 -0.47176527977 -0.38755458593 -0.25145193934
          -0.11553968489 -0.18315963447 -0.29288345575 -0.18319545686 -0.3347171247 -0.26687937975
          -0.51229047775 -0.53817480803 -0.40258157253 -0.62199807167 -0.4025349617 -0.47033399343
          -0.40255507827 -0.62200516462 -0.53810727596 -0.40242674947 -0.26695391536 -0.33297780156
          -0.44245699048 -0.33294767141 -0.48426634073 -0.41659045219 -0.66146039963 -0.68728727102
          -0.55196475983 -0.77097791433 -0.55194586515 -0.61961084604 -0.55192124844 -0.77100610733
          -0.68727725744 -0.55189394951 -0.41658890247 -0.48178878427 -0.59127229452 -0.48180514574
          -0.63306152821 -0.56538915634 -0.81022596359 -0.83603173494 -0.70072996616 -0.91972243786
          -0.70072805882 -0.76839739084 -0.70067632198 -0.91975522041 -0.83609092236 -0.70073705912
          -0.56544113159 -0.62999469042 -0.73946666718 -0.62999111414 -0.78122967482 -0.71356719732
          -0.95842337608 -0.98428171873 -0.8489921093 -1.0679078102 -0.84893298149 -0.91659605503
          -0.84899318218 -1.0678944588 -0.9842376709 -0.8488599658 -0.71365189552 0.77477371693
          0.69442385435 0.7747618556 0.66392225027 0.71363371611 0.53384757042 0.51510804892
          0.61422115564 0.45347207785 0.61418485641 0.56476455927 0.61455696821 0.45363971591
          0.51549953222 0.61492133141 0.71345978975 0.193481341 0.18964536488 0.17532420158
          0.2112480253 0.20036926866 0.17516328394 0.18939934671 -0.8762409687 -0.76394075155
          -0.87620967627 -0.90158504248 -0.78750705719 -0.9013980031 -0.72108632326 -0.74407142401
          -0.79056406021 -0.81461006403 -0.53938007355 -0.51301646233 -0.65162730217 -0.55964261293
          -0.53285896778 -0.67357283831 -0.42727002501 -0.44570529461 -0.65163451433 -0.67360687256
          -0.58232462406 -0.60312265158 -0.65175175667 -0.67360818386 -0.42729958892 -0.44550439715
          -0.51317155361 -0.53256541491 -0.6518688798 -0.67365205288 -0.79052996635 -0.81430703402
          -0.92588549852 -0.81055551767 -0.92562586069 -0.76660805941 -0.83786344528 -0.58044683933
          -0.55345124006 -0.69547641277 -0.46551439166 -0.6954523325 -0.62420409918 -0.69541150331
          -0.46514615417 -0.55287480354 -0.69526642561 -0.83753448725 -0.94851338863 -0.83175837994
          -0.94817572832 -0.78730809689 -0.85939407349 -0.59900039434 -0.57172214985 -0.71529722214
          -0.48293882608 -0.7153121233 -0.64321410656 -0.71515744925 -0.48248997331 -0.57095712423
          -0.71497225761 -0.85889732838 -0.96566653252 -0.84766727686 -0.96536618471 -0.80274623632
          -0.87548291683 -0.61250323057 -0.58471471071 -0.72989141941 -0.49521934986 -0.72999978065
          -0.65716922283 -0.72953414917 -0.49482420087 -0.5841217041 -0.72953402996 -0.87497234344
          -0.97288018465 -0.85382592678 -0.97270655632 -0.80834871531 -0.88162857294 -0.61651176214
          -0.5883308053 -0.73495936394 -0.49817106128 -0.73506504297 -0.66157776117 -0.73448830843
          -0.49794101715 -0.58792030811 -0.73441141844 -0.88140684366 -0.96633219719 -0.8465411067
          -0.96634602547 -0.80073344707 -0.8743545413 -0.6076759696 -0.57914942503 -0.72677260637
          -0.48861321807 -0.72695696354 -0.6530739069 -0.72623735666 -0.48856365681 -0.57904005051
          -0.72626435757 -0.87436276674 -0.94509518147 -0.82469934225 -0.94522458315 -0.77853083611
          -0.85247200727 -0.58432388306 -0.55544316769 -0.70413339138 -0.46448659897 -0.70435875654
          -0.63002741337 -0.70358657837 -0.46450552344 -0.55552423 -0.70350849628 -0.85268950462
          -0.90679728985 -0.78576815128 -0.90704333782 -0.73926460743 -0.81351369619 -0.54410886765
          -0.5149704814 -0.66456896067 -0.42360591888 -0.66477632523 -0.58998519182 -0.66390329599
          -0.42371457815 -0.5151026845 -0.6637173295 -0.81389600039 -0.84889215231 -0.72691082954
          -0.84918266535 -0.67997449636 -0.75476819277 -0.48332980275 -0.45391255617 -0.60471701622
          -0.36188942194 -0.60493683815 -0.52957946062 -0.60406142473 -0.36206462979 -0.45415467024
          -0.60383808613 -0.75530475378 -0.770226717 -0.64726293087 -0.770639956 -0.599840343
          -0.67523670197 -0.40158250928 -0.37189000845 -0.52402704954 -0.27911859751 -0.52417707443
          -0.44821161032 -0.52334779501 -0.27939227223 -0.37224847078 -0.52306163311 -0.67598932981
          -0.66971045732 -0.54623818398 -0.67014157772 -0.49864667654 -0.5743265748 -0.29943153262
          -0.2695492208 -0.42244100571 -0.17634400725 -0.42264604568 -0.34633648396 -0.42171901464
          -0.17664125562 -0.2700099349 -0.42151397467 -0.57507139444 -0.54633337259 -0.42295381427
          -0.54668134451 -0.37555760145 -0.45119196177 -0.17660272121 -0.14678017795 -0.29931393266
          -0.053817626089 -0.29961711168 -0.2234903276 -0.29859605432 -0.054101098329 -0.14728158712
          -0.29865595698 -0.45171183348 -0.40141513944 -0.27873507142 -0.40172925591 -0.23161759973
          -0.3069165349 -0.033609777689 -0.0039883111604 -0.15580797195 0.088697507977 -0.15605467558
          -0.08028960228 -0.15515218675 0.088401608169 -0.0044494308531 -0.15518003702 -0.30738636851
          -0.23866064847 -0.11616317183 -0.23887383938 -0.069142140448 -0.14442208409 0.12857304513
          0.15795561671 0.0065131704323 0.25064048171 0.0063440422527 0.082002013922 0.007010967005
          0.25049731135 0.15771049261 0.0070772799663 -0.1447852999 -0.061678871512 0.060850288719
          -0.061843480915 0.10782844573 0.032443273813 0.30571815372 0.33502593637 0.18354147673
          0.42796757817 0.18340736628 0.25908988714 0.18391108513 0.42785891891 0.3348056078
          0.18392388523 0.032139375806 0.12605892122 0.24866731465 0.1259163022 0.29560431838
          0.22006134689 0.49369436502 0.5228344202 0.37136232853 0.61600011587 0.3712811172
          0.44698512554 0.37158751488 0.61598730087 0.52273333073 0.37159848213 0.21984946728
          0.32153373957 0.44403490424 0.32146459818 0.49095180631 0.4153303504 0.68896406889
          0.71794658899 0.56658941507 0.81129151583 0.56654316187 0.64226269722 0.56673121452
          0.81134361029 0.71804344654 0.5668271184 0.41520744562 0.52116709948 0.64375114441
          0.52119171619 0.69058763981 0.61483108997 0.88876843452 0.91769558191 0.76632630825
          1.0112266541 0.76628410816 0.84201186895 0.76636004448 1.0112154484 0.91776883602
          0.76632720232 0.61488759518 0.72211170197 0.84460049868 0.72210270166 0.89139956236
          0.81568127871 1.0895887613 1.1185085773 0.96709883213 1.2121373415 0.96705681086
          1.0427772999 0.9671035409 1.2121219635 1.1184955835 0.96707689762 0.81572914124
          -0.64481461048 -0.56201738119 -0.6449097991 -0.53051453829 -0.5818554759 -0.395434618
          -0.3760804832 -0.47901725769 -0.31184142828 -0.47890913486 -0.42767974734 -0.47948622704
          -0.31209006906 -0.37664616108 -0.47989588976 -0.58187764883 -0.066846519709 -0.06103618443
          -0.041598472744 -0.091721959412 -0.07666388154 -0.041892461479 -0.061668414623 0.12039481103
          0.033608868718 -0.053233925253 -0.10676484555 0.033521950245 0.17372596264 0.033479094505
          -0.10676332563 0.033454269171 -0.053264006972 0.1202038303 0.033453274518 0.17365391552
          0.08123537153 0.017087029293 -0.047179102898 -0.087081670761 0.016940334812 0.12086243927
          0.016910616308 -0.087017312646 0.016963137314 -0.047015469521 0.081115022302 0.017122253776
          0.12079332024 0.051089029759 0.0063451505266 -0.03871261701 -0.066731713712 0.0060465433635
          0.078550159931 0.005959559232 -0.066715709865 0.0059338873252 -0.038774322718 0.05078856647
          0.0060681174509 0.078414037824 0.029251668602 0.0012583746575 -0.026906551793 -0.044469688088
          0.0010231870692 0.046399813145 0.00093768991064 -0.044524095953 0.00091795570916 -0.027054555714
          0.028920842335 0.00097699009348 0.046258836985 0.012868695892 -3.6258879845e-05 -0.013037641533
          -0.021394053474 -0.00016459666949 0.020974390209 -0.00022155698389 -0.021678837016 -0.00023399175552
          -0.013557008468 0.01304020267 -0.000245025818 0.021111216396 0 0
          0 0 0 0 0 0
          0 0 0 0 0
        </DataArray>
        <DataArray type="Float32" Name="uz" format="ascii" RangeMin="-0.09968110919" RangeMax="0.12631823123">
          -0.00028711781488 -0.0026675430126 -0.0006770947366 -0.00049234018661 -0.0018432690995 0.00046799748088
          -0.0064702699892 -0.0034856065176 -0.0047727380879 -0.0076270103455 -0.0062030167319 -0.015977080911
          -0.0077583473176 -0.011070481502 0.00064902455779 0.0025390260853 0.006793577224 0.002645607572
          -0.0037309036124 -0.010769346729 -0.010835175402 -0.0053012231365 -0.017300255597 0.0083827814087
          0.0039194477722 0.00039523481973 -0.003336367663 -0.00078730320092 -0.0071808141656 -0.011226217262
          9.0617731985e-06 -0.0082649365067 -0.012296136469 0.0026639138814 0.003143098671 0.0086937174201
          0.010739825666 -0.0044731032103 -0.015117366798 -0.01159161143 -0.0065060709603 -0.019374560565
          -0.014200948179 -0.0056213960052 -0.0087796095759 -0.0032683725003 -0.0043269535527 0.0043030958623
          0.004179823678 -0.0201125741 -0.024309888482 0.0046785944141 0.0034979125485 0.012009000406
          0.012881466188 0.013516387902 0.015635235235 -0.018613692373 -0.02153213881 -0.0020273034461
          -0.0052696657367 -0.0084241516888 0.0010361056775 0.004339045845 -0.0020774977747 -0.0084045985714
          -0.0071826614439 -0.0021481672302 -0.00210402417 0.0029709073715 -0.012347737327 0.0041733691469
          0.0081466408446 0.0081897191703 -0.012381259352 -0.0039502140135 -0.0028847677168 -0.004895824939
          -0.0013933150331 -0.0018157000886 0.00068329973146 0.00018354791973 -0.0015536551364 0.0022230034228
          -0.00088511232752 0.00081719091395 -0.0023018845823 0.0031306559686 0.0025613217149 0.00067625701195
          -0.0042396490462 -0.0058981329203 -5.2530001994e-05 -0.00053357804427 -0.0041664987803 -0.008809668012
          0.0037014104892 0.0097508318722 0.0048140878789 0.00687492406 0.00048734244774 -0.0018307185965
          0.0090831117705 0.0015506043565 -0.0041756220162 -0.0081394137815 0.0051883808337 -0.0075364452787
          0.0031238519587 0.004511130508 -0.0071382387541 -0.015996938571 0.0062920260243 0.019378637895
          0.011425322853 0.010859567672 0.0017133795191 -0.0051541225985 0.021143751219 -0.001146530034
          -0.012087517418 -0.017733301967 0.015489179641 -0.0092508392408 0.0060595464893 0.009459096007
          -0.010432826355 -0.02346903272 0.0084001366049 0.028463911265 0.017701338977 0.014233033173
          0.0025526422542 -0.0089609930292 0.032829262316 -0.0044452697039 -0.020455813035 -0.027732688934
          0.025570249185 -0.011451018043 0.0084196478128 0.013812481426 -0.01403553877 -0.031134586781
          0.010224389844 0.037070218474 0.02341305837 0.01738175191 0.0030529841315 -0.012844290584
          0.043805643916 -0.0077787167393 -0.028831262141 -0.037737734616 0.034918185323 -0.013784988783
          0.010226725601 0.017270246521 -0.017564874142 -0.038442306221 0.011680510826 0.044729892164
          0.028255807236 0.020231999457 0.0031897244044 -0.016625151038 0.053408440202 -0.010789063759
          -0.036520171911 -0.047095078975 0.042929217219 -0.015244292095 0.012121493928 0.020790571347
          -0.020329028368 -0.04416693002 0.012721741572 0.050990059972 0.032530285418 0.022155601531
          0.0034188621212 -0.019935548306 0.061733312905 -0.013873107731 -0.043290194124 -0.054874956608
          0.050195079297 -0.015231816098 0.014491926879 0.025126012042 -0.022195529193 -0.048251938075
          0.013308919035 0.055938258767 0.03647448495 0.022797103971 0.0038273816463 -0.022925281897
          0.0691883564 -0.01751296781 -0.049689739943 -0.061405766755 0.057415481657 -0.01453455165
          0.017075270414 0.029871305451 -0.023669177666 -0.051646411419 0.013756602071 0.060252606869
          0.040198367089 0.023130919784 0.0043288753368 -0.025694984943 0.076069287956 -0.02116634883