<VTKFile type="UnstructuredGrid" version="1.0" byte_order="LittleEndian" header_type="UInt64">
  <UnstructuredGrid>
    <Piece NumberOfPoints="791" NumberOfCells="973">
      <PointData>
        <DataArray type="Float32" Name="ux" format="ascii" RangeMin="-0.71891456842" RangeMax="5.8132245545e-11">
          -0.064149603248 -0.069896049798 -0.072133079171 -0.063084252179 -0.064158275723 -0.072054870427
          -0.069954760373 -0.064176082611 -0.068504877388 -0.06518600136 -0.063144221902 -0.068548813462
          -0.064218834043 -0.065242961049 -0.068405732512 -0.065139979124 -0.06841288507 -0.065088160336
          -0.07574929297 -0.068102687597 -0.075837060809 -0.075767628849 -0.075840935111 -0.075619377196
          -0.067961893976 -0.07571041584 -0.062422253191 -0.1408072561 -0.14116623998 -0.14134678245
          -0.1149622649 -0.11535041034 -0.11550415307 -0.14069537818 -0.11488303542 -0.14034150541
          -0.11451379955 -0.14114926755 -0.14160060883 -0.14140297472 -0.11535400897 -0.11579477042
          -0.11559513956 -0.14128141105 -0.11549840868 -0.14102494717 -0.11522264034 -0.14071781933
          -0.11493009329 -0.14176240563 -0.1159427464 -0.14085537195 -0.1150970757 -0.14042793214
          -0.11466948688 -0.14020252228 -0.11440964043 -0.14169839025 -0.11585959792 -0.16776691377
          -0.16813224554 -0.16830009222 -0.16766564548 -0.16731311381 -0.16812005639 -0.16857589781
          -0.16837251186 -0.16825342178 -0.16799512506 -0.16769073904 -0.16873215139 -0.16782486439
          -0.16740356386 -0.16718067229 -0.16865482926 -0.19577616453 -0.19613958895 -0.19630309939
          -0.19567686319 -0.19532956183 -0.19612950087 -0.19659215212 -0.1963839978 -0.19626091421
          -0.19600488245 -0.1956987083 -0.19674797356 -0.19582542777 -0.19540689886 -0.19519351423
          -0.19666287303 -0.22470512986 -0.2250687927 -0.22522681952 -0.22460898757 -0.22426514328
          -0.22505949438 -0.22552827001 -0.22531613708 -0.22518996894 -0.22493539751 -0.22462797165
          -0.22568328679 -0.22474882007 -0.22433368862 -0.22412782907 -0.22559015453 -0.25444218516
          -0.25480601192 -0.25495922565 -0.2543490231 -0.25400835276 -0.25479820371 -0.2552728951
          -0.25505641103 -0.25492739677 -0.25467434525 -0.25436577201 -0.25542712212 -0.25448036194
          -0.25406807661 -0.25386944413 -0.25532656908 -0.28488221765 -0.28524643183 -0.28539535403
          -0.2847918272 -0.28445440531 -0.28523999453 -0.28572019935 -0.2855001092 -0.28536826372
          -0.28511622548 -0.28480637074 -0.28587391973 -0.28491553664 -0.28450590372 -0.28431373835
          -0.28576618433 -0.3159276247 -0.31629195809 -0.31643667817 -0.31583935022 -0.31550455093
          -0.31628665328 -0.31677234173 -0.31654855609 -0.31641405821 -0.31616321206 -0.31585168839
          -0.31692552567 -0.31595617533 -0.31554847956 -0.31536266208 -0.31681132317 -0.34748652577
          -0.34785139561 -0.34799256921 -0.34740051627 -0.34706813097 -0.34784692526 -0.34833803773
          -0.34811064601 -0.34797376394 -0.34772381186 -0.34741082788 -0.34849077463 -0.34751072526
          -0.34710520506 -0.34692469239 -0.34837046266 -0.37947610021 -0.37984138727 -0.379979074
          -0.37939202785 -0.3790615797 -0.37983798981 -0.38033396006 -0.38010337949 -0.37996408343
          -0.37971478701 -0.37940061092 -0.38048624992 -0.37949633598 -0.37909224629 -0.37891688943
          -0.38036048412 -0.41182121634 -0.41218712926 -0.41232168674 -0.41173899174 -0.41141036153
          -0.41218447685 -0.41268441081 -0.41245141625 -0.41230970621 -0.41206115484 -0.41174584627
          -0.41283655167 -0.41183778644 -0.41143533587 -0.41126456857 -0.41270583868 -0.44445425272
          -0.44482025504 -0.44495248795 -0.44437342882 -0.44404628873 -0.4448184669 -0.44532248378
          -0.44508677721 -0.44494310021 -0.44469517469 -0.44437897205 -0.4454742074 -0.44446757436
          -0.44406625628 -0.44389951229 -0.44533899426 -0.47731468081 -0.47768115997 -0.47781091928
          -0.4772348702 -0.47690936923 -0.47767987847 -0.47818720341 -0.47794929147 -0.47780406475
          -0.47755682468 -0.47723942995 -0.47833895683 -0.47732502222 -0.47692480683 -0.47676160932
          -0.47820010781 -0.51034986973 -0.51071673632 -0.51084464788 -0.51027137041 -0.50994706154
          -0.51071590185 -0.51122635603 -0.51098650694 -0.51083987951 -0.51059299707 -0.51027470827
          -0.51137781143 -0.51035797596 -0.50995850563 -0.50979822874 -0.51123577356 -0.54351460934
          -0.54388171434 -0.54400777817 -0.54343700409 -0.54311364889 -0.54388105869 -0.54439413548
          -0.54415255785 -0.54400467873 -0.54375839233 -0.54343944788 -0.54454565048 -0.5435205698
          -0.54312211275 -0.54296433926 -0.54440039396 -0.57677018642 -0.57713717222 -0.57726204395
          -0.57669311762 -0.57637089491 -0.57713705301 -0.57765179873 -0.57740920782 -0.57726019621
          -0.57701402903 -0.57669478655 -0.5778029561 -0.57677406073 -0.57637655735 -0.57622087002
          -0.57765579224 -0.61008471251 -0.61045187712 -0.61057561636 -0.61000835896 -0.60968691111
          -0.61045187712 -0.61096823215 -0.61072468758 -0.61057472229 -0.61032921076 -0.61000949144
          -0.61111927032 -0.61008733511 -0.60969007015 -0.60953634977 -0.61097037792 -0.64343422651
          -0.64380151033 -0.64392447472 -0.64335799217 -0.64303702116 -0.64380151033 -0.64431887865
          -0.64407473803 -0.6439242363 -0.64367896318 -0.64335882664 -0.64447033405 -0.643435359
          -0.64303874969 -0.64288622141 -0.64431989193 -0.67679977417 -0.67716735601 -0.67729008198
          -0.67672419548 -0.67640346289 -0.6771672368 -0.67768573761 -0.67744100094 -0.67728996277
          -0.67704474926 -0.6767244339 -0.67783713341 -0.67680037022 -0.67640388012 -0.6762521863
          -0.67768609524 -0.71016997099 -0.71053743362 -0.71065992117 -0.7100943327 -0.70977383852
          -0.71053755283 -0.71105611324 -0.71081125736 -0.71066009998 -0.71041512489 -0.7100944519
          -0.71120750904 -0.7101701498 -0.70977383852 -0.70962226391 -0.71105617285 -0.081296809018
          -0.085574313998 -0.081628985703 -0.086798258126 -0.084076859057 -0.093549273908 -0.094803079963
          -0.089739248157 -0.097639903426 -0.089484594762 -0.0917397663 -0.08998157829 -0.097356826067
          -0.094027169049 -0.088937111199 -0.084983110428 -0.081727325916 -0.083151333034 -0.087661221623
          -0.075776562095 -0.079380914569 -0.087598830462 -0.082976974547 -0.11600334197 -0.11562202126
          -0.11550358683 -0.14223061502 -0.14182560146 -0.14173421264 -0.1160248816 -0.14222513139
          -0.11632081121 -0.14254708588 -0.11566118151 -0.11524966359 -0.11537866294 -0.14183545113
          -0.14139200747 -0.14156267047 -0.11564161628 -0.1417786479 -0.11573744565 -0.14192706347
          -0.11600378901 -0.14219306409 -0.1150007695 -0.14117889106 -0.11598267406 -0.14215199649
          -0.11623485386 -0.14243203402 -0.11638192832 -0.14259076118 -0.11509248614 -0.14130547643
          -0.16956070065 -0.16916932166 -0.16907016933 -0.16956807673 -0.16987985373 -0.16918316483
          -0.16874417663 -0.1689120084 -0.16912637651 -0.16927358508 -0.16954146326 -0.16853360832
          -0.16950148344 -0.16978472471 -0.16993686557 -0.16865319014 -0.19793312252 -0.19754743576
          -0.19744834304 -0.19794639945 -0.19825717807 -0.19755925238 -0.1971155256 -0.19729119539
          -0.19749525189 -0.19765248895 -0.19792297482 -0.19691440463 -0.1978789717 -0.19817154109
          -0.19832278788 -0.19703775644 -0.22722113132 -0.22684206069 -0.22674138844 -0.22724102437
          -0.22754907608 -0.22685225308 -0.2264058888 -0.22658653557 -0.22678270936 -0.22694762051
          -0.22721998394 -0.22621247172 -0.22717301548 -0.2274736017 -0.22762295604 -0.22633692622
          -0.25731548667 -0.2569424808 -0.25684067607 -0.25734141469 -0.2576470077 -0.25695133209
          -0.25650209188 -0.25668796897 -0.25687634945 -0.25704848766 -0.25732317567 -0.25631591678
          -0.25727331638 -0.25758114457 -0.25772902369 -0.25644239783 -0.28811296821 -0.28774538636
          -0.28764265776 -0.28814479709 -0.28844818473 -0.28775298595 -0.28730115294 -0.28749203682
          -0.28767320514 -0.28785231709 -0.28812897205 -0.28712189198 -0.28807649016 -0.28839111328
          -0.2885376513 -0.28724986315 -0.31951770186 -0.31915506721 -0.3190511167 -0.31955471635
          -0.31985640526 -0.31916132569 -0.31870651245 -0.31890240312 -0.3190767765 -0.31926226616
          -0.31954118609 -0.31853380799 -0.31948643923 -0.31980755925 -0.31995269656 -0.31866312027
          -0.35144019127 -0.35108211637 -0.35097700357 -0.35148221254 -0.35178235173 -0.35108712316
          -0.35062992573 -0.3508297801 -0.35099840164 -0.35119000077 -0.35147058964 -0.35046264529
          -0.3514136374 -0.35174098611 -0.35188511014 -0.35059326887 -0.38379877806 -0.38344469666
          -0.38333871961 -0.38384523988 -0.38414365053 -0.38344892859 -0.38298889995 -0.38319301605
          -0.38335615396 -0.38355305791 -0.38383555412 -0.38282689452 -0.38377645612 -0.38410961628
          -0.38425254822 -0.38295894861 -0.41651898623 -0.41616854072 -0.41606172919 -0.41656941175
          -0.41686671972 -0.41617181897 -0.41570973396 -0.41591742635 -0.41607549787 -0.41627761722
          -0.41656163335 -0.4155523479 -0.41650050879 -0.41683867574 -0.41698092222 -0.41568550467
          -0.44953301549 -0.44918611646 -0.44907814264 -0.44958740473 -0.44988319278 -0.44918859005
          -0.44872456789 -0.44893527031 -0.44908902049 -0.44929522276 -0.44958081841 -0.44857117534
          -0.44951817393 -0.44986107945 -0.45000219345 -0.44870558381 -0.48278006911 -0.48243638873
          -0.48232781887 -0.48283776641 -0.48313248158 -0.48243811727 -0.48197227716 -0.48218595982
          -0.4823358357 -0.48254603148 -0.48283264041 -0.48182284832 -0.48276862502 -0.48311537504
          -0.48325559497 -0.48195782304 -0.51620692015 -0.51586586237 -0.51575678587 -0.51626718044
          -0.51656097174 -0.51586711407 -0.51540005207 -0.51561588049 -0.51576256752 -0.51597565413
          -0.51626366377 -0.5152540803 -0.51619809866 -0.51654809713 -0.51668781042 -0.51538962126
          -0.54976719618 -0.54942840338 -0.54931873083 -0.54982972145 -0.55012255907 -0.54942917824
          -0.54896104336 -0.54917877913 -0.54932248592 -0.54953861237 -0.54982715845 -0.54881775379
          -0.54976058006 -0.55011349916 -0.5502524972 -0.54895395041 -0.58342117071 -0.58308416605
          -0.58297419548 -0.58348578215 -0.58377790451 -0.58308464289 -0.58261567354 -0.58283495903
          -0.58297640085 -0.58319479227 -0.58348405361 -0.58247458935 -0.58341670036 -0.58377206326
          -0.58391040564 -0.58261120319 -0.61713594198 -0.61680054665 -0.61668986082 -0.61720234156
          -0.61749392748 -0.61680072546 -0.61633092165 -0.61655163765 -0.61669117212 -0.61691111326
          -0.61720108986 -0.61619126797 -0.61713337898 -0.6174904108 -0.61762833595 -0.61632835865
          -0.65088528395 -0.65055078268 -0.65044003725 -0.65095281601 -0.65124386549 -0.65055072308
          -0.65008056164 -0.65030217171 -0.65044033527 -0.65066158772 -0.65095204115 -0.64994227886
          -0.65088373423 -0.65124225616 -0.65137994289 -0.65007936954 -0.68464946747 -0.68431586027
          -0.68420493603 -0.684717834 -0.68500900269 -0.68431586027 -0.68384540081 -0.6840672493
          -0.68420499563 -0.68442696333 -0.68471771479 -0.68370765448 -0.68464899063 -0.68500840664
          -0.68514579535 -0.683845222 -0.71841794252 -0.71808463335 -0.7179735899 -0.71848642826
          -0.71877747774 -0.71808457375 -0.71761399508 -0.71783596277 -0.71797353029 -0.71819549799
          -0.71848654747 -0.71747648716 -0.71841776371 -0.71877735853 -0.71891456842 -0.71761393547
          -0.08161663264 -0.085497915745 -0.081336945295 -0.087284624577 -0.084956608713 -0.09359523654
          -0.094306692481 -0.089396439493 -0.097637817264 -0.089614115655 -0.092268891633 -0.089157789946
          -0.097839839756 -0.094909213483 -0.090000681579 -0.084216423333 -0.081737011671 -0.083125181496
          -0.087690599263 -0.075776211917 -0.079431377351 -0.087683178484 -0.083071276546 -0.041998520494
          -0.041746344417 -0.0416983217 -0.041970081627 -0.041884388775 -0.042121745646 -0.041894063354
          -0.042115528136 -0.041851636022 -0.041932985187 -0.04161369428 -0.041657622904 -0.041921854019
          -0.025977622718 -0.025833144784 -0.025717195123 -0.025911683217 -0.025820314884 -0.0260460563
          -0.025815013796 -0.026034398004 -0.025793107226 -0.025928465649 -0.025654237717 -0.025762788951
          -0.025879805908 -0.014135289937 -0.013956810348 -0.01385709364 -0.014077615924 -0.013985834084
          -0.014220989309 -0.013986426406 -0.014216923155 -0.013966404833 -0.014101274312 -0.013808657415
          -0.01390609704 -0.014050201513 -0.006096791476 -0.005928860046 -0.0058296262287 -0.0060441405512
          -0.0059570190497 -0.0061822715215 -0.0059620747343 -0.0061829928309 -0.0059442897327 -0.0060771475546
          -0.0057964953594 -0.005896020215 -0.0060230451636 -0.0015678602504 -0.0013572499156 -0.0012378203683
          -0.0015070365043 -0.0013919450575 -0.0016782202292 -0.0013982198434 -0.0016857405426 -0.0013859136961
          -0.0015627214452 -0.0012173173018 -0.0013412173139 -0.0014896795619 -1.3370176494e-11 5.8132245545e-11
          -5.889585152e-13 1.4625208596e-12 5.5393398202e-12 3.0497512068e-13 -7.6067711158e-13 -9.9917996986e-15
          -4.9416406127e-15 0 0 0 4.7550388309e-15
        </DataArray>
        <DataArray type="Float32" Name="uy" format="ascii" RangeMin="-0.81446510553" RangeMax="1.7477445272e-12">
          -0.07064396143 -0.076800666749 -0.079286299646 -0.069526739419 -0.070493221283 -0.079115495086
          -0.076728843153 -0.070604331791 -0.075320884585 -0.071759626269 -0.069535307586 -0.07537484169
          -0.070543885231 -0.071731701493 -0.075504504144 -0.071823552251 -0.075246751308 -0.071701563895
          -0.083213329315 -0.074840068817 -0.08319324255 -0.083275690675 -0.083251997828 -0.083167634904
          -0.074877120554 -0.083347178996 -0.068764179945 -0.15583103895 -0.15625779331 -0.15588858724
          -0.12629489601 -0.12672929466 -0.12633903325 -0.15639352798 -0.12687584758 -0.15614981949
          -0.12662132084 -0.1569776684 -0.15705400705 -0.15664109588 -0.12745630741 -0.1275434047
          -0.1271186918 -0.15729898214 -0.12777611613 -0.1566273123 -0.12710981071 -0.15687444806
          -0.12736226618 -0.1566811353 -0.12716452777 -0.15736147761 -0.12784378231 -0.15715427697
          -0.1276537329 -0.15668621659 -0.12717536092 -0.15624138713 -0.12669867277 -0.18652823567
          -0.18695086241 -0.186577335 -0.1870881319 -0.18684360385 -0.18767638505 -0.18775640428
          -0.18733486533 -0.18800537288 -0.18732270598 -0.18756845593 -0.18737100065 -0.18805930018
          -0.18784368038 -0.18737435341 -0.1869238466 -0.21826931834 -0.21868537366 -0.21831277013
          -0.21882337332 -0.21858105063 -0.21941235662 -0.21949253976 -0.21906743944 -0.21974541247
          -0.21905678511 -0.21930091083 -0.21909914911 -0.21979379654 -0.21957078576 -0.2191028595
          -0.21865174174 -0.25092852116 -0.25133928657 -0.25096660852 -0.25147771835 -0.25123715401
          -0.25206851959 -0.25214934349 -0.25172007084 -0.25240632892 -0.25171104074 -0.25195327401
          -0.25174793601 -0.25244891644 -0.25221803784 -0.25175136328 -0.25129893422 -0.2843940258
          -0.28479981422 -0.28442707658 -0.28493911028 -0.28469973803 -0.28553146124 -0.28561338782
          -0.28517964482 -0.28587397933 -0.28517183661 -0.28541252017 -0.28520381451 -0.28591096401
          -0.28567326069 -0.28520721197 -0.284753263 -0.31856092811 -0.31896224618 -0.31858929992
          -0.31910201907 -0.31886386871 -0.31969627738 -0.31977885962 -0.31934124231 -0.3200430274
          -0.3193346858 -0.31957429647 -0.31936201453 -0.32007536292 -0.31983074546 -0.31936523318
          -0.31890961528 -0.35333105922 -0.35372835398 -0.35335510969 -0.35386887193 -0.35363152623
          -0.35446482897 -0.35454839468 -0.35410678387 -0.35481601954 -0.35410124063 -0.35433968902
          -0.35412439704 -0.35484334826 -0.35459262133 -0.35412734747 -0.35367047787 -0.38861322403
          -0.38900721073 -0.38863331079 -0.38914811611 -0.3889118135 -0.38974642754 -0.38983049989
          -0.3893853724 -0.390101403 -0.38938054442 -0.38961815834 -0.38939973712 -0.3901245892
          -0.38986778259 -0.38940268755 -0.38894411922 -0.42432439327 -0.42471519113 -0.42434072495
          -0.42485696077 -0.42462101579 -0.42545691133 -0.42554175854 -0.42509299517 -0.4258159399
          -0.42508924007 -0.42532601953 -0.42510482669 -0.42583486438 -0.42557308078 -0.4251075387
          -0.42464759946 -0.46038880944 -0.46077695489 -0.46040207148 -0.46091887355 -0.46068370342
          -0.46152070165 -0.46160638332 -0.46115449071 -0.46188318729 -0.46115157008 -0.46138742566
          -0.46116399765 -0.4618987143 -0.46163183451 -0.46116632223 -0.46070498228 -0.49673870206
          -0.4971242547 -0.49674895406 -0.49726688862 -0.49703234434 -0.49787032604 -0.49795654416
          -0.49750158191 -0.4982354641 -0.49749937654 -0.4977349937 -0.49750909209 -0.49824783206
          -0.49797680974 -0.49751129746 -0.49704894423 -0.53331375122 -0.53369736671 -0.53332185745
          -0.53384053707 -0.53360629082 -0.5344452858 -0.53453207016 -0.53407484293 -0.53481340408
          -0.53407299519 -0.5343080163 -0.53408044577 -0.53482294083 -0.53454810381 -0.53408229351
          -0.533618927 -0.57006186247 -0.57044404745 -0.57006782293 -0.57058733702 -0.57035332918
          -0.57119339705 -0.57128077745 -0.57082116604 -0.57156395912 -0.57081979513 -0.57105439901
          -0.57082509995 -0.57157087326 -0.57129263878 -0.57082694769 -0.57036244869 -0.60693860054
          -0.60731881857 -0.60694253445 -0.60746252537 -0.60722893476 -0.60806971788 -0.60815727711
          -0.60769605637 -0.60844182968 -0.6076952219 -0.60792928934 -0.60769873857 -0.60844689608
          -0.60816586018 -0.60770016909 -0.60723525286 -0.64390575886 -0.6442848444 -0.64390838146
          -0.6444285512 -0.6441950798 -0.64503639936 -0.64512431622 -0.64466160536 -0.64541012049
          -0.64466112852 -0.64489483833 -0.64466357231 -0.64541351795 -0.64513027668 -0.6446647048
          -0.64419925213 -0.68093192577 -0.68130975962 -0.68093329668 -0.68145358562 -0.68122076988
          -0.68206202984 -0.68215060234 -0.68168658018 -0.68243718147 -0.68168652058 -0.68191981316
          -0.68168759346 -0.68243932724 -0.68215417862 -0.68168842793 -0.68122297525 -0.71799135208
          -0.71836876869 -0.71799200773 -0.71851283312 -0.71827989817 -0.71912175417 -0.71921056509
          -0.71874558926 -0.71949779987 -0.71874552965 -0.71897876263 -0.7187461853 -0.71949887276
          -0.71921229362 -0.71874654293 -0.71828067303 -0.75506603718 -0.75544339418 -0.75506645441
          -0.75558716059 -0.75535434484 -0.75619697571 -0.75628566742 -0.75582009554 -0.75657337904
          -0.75582003593 -0.7560530901 -0.75582033396 -0.75657391548 -0.75628644228 -0.75582045317
          -0.75535464287 -0.7921448946 -0.79252159595 -0.79214477539 -0.79266566038 -0.79243284464
          -0.7932754755 -0.79336446524 -0.79289859533 -0.79365241528 -0.79289877415 -0.79313158989
          -0.79289859533 -0.79365253448 -0.79336476326 -0.79289865494 -0.79243284464 -0.088360548019
          -0.093263052404 -0.088417030871 -0.095090284944 -0.092081412673 -0.10274325311 -0.10385822505
          -0.098041214049 -0.10742837936 -0.098031535745 -0.10098490119 -0.098074764013 -0.10750353336
          -0.10398630798 -0.098096877337 -0.092176735401 -0.089681565762 -0.091222010553 -0.096217215061
          -0.083142004907 -0.087175086141 -0.0962504372 -0.091244094074 -0.12720714509 -0.12755067647
          -0.12715531886 -0.1572278887 -0.15754471719 -0.15716576576 -0.1277115643 -0.15771101415
          -0.12754619122 -0.15756142139 -0.12823459506 -0.12840057909 -0.12792734802 -0.15822459757
          -0.1583738327 -0.15791006386 -0.12856313586 -0.15855064988 -0.12790636718 -0.15789529681
          -0.12810355425 -0.15809454024 -0.12797257304 -0.15795612335 -0.12850137055 -0.15849474072
          -0.12830270827 -0.15828177333 -0.127969414 -0.15795858204 -0.12746186554 -0.15746290982
          -0.18849875033 -0.18882268667 -0.1884445101 -0.18898500502 -0.18882572651 -0.18950487673
          -0.18964697421 -0.18918699026 -0.18983365595 -0.18917375803 -0.18937513232 -0.18922628462
          -0.18978528678 -0.18956825137 -0.18923076987 -0.188738361 -0.22092065215 -0.22124549747
          -0.22087237239 -0.22140410542 -0.22123992443 -0.22192689776 -0.2220620811 -0.22160688043
          -0.22225645185 -0.22159509361 -0.22179715335 -0.22164192796 -0.22221329808 -0.2219915539
          -0.22164550424 -0.2211624831 -0.25435751677 -0.25468400121 -0.25431478024 -0.2548392415
          -0.25466945767 -0.2553653121 -0.2554936707 -0.25504270196 -0.25569617748 -0.25503244996
          -0.2552357316 -0.25507369637 -0.25565814972 -0.25543197989 -0.25507703424 -0.25460091233
          -0.28868788481 -0.28901621699 -0.28865084052 -0.28916814923 -0.28899332881 -0.28969722986
          -0.28981953859 -0.28937253356 -0.29002934694 -0.28936362267 -0.28956779838 -0.28939926624
          -0.28999620676 -0.28976595402 -0.28940245509 -0.28893342614 -0.32379671931 -0.32412651181
          -0.323764503 -0.32427564263 -0.32409605384 -0.3248077333 -0.32492408156 -0.32448062301
          -0.32514089346 -0.32447290421 -0.32467794418 -0.32450371981 -0.32511246204 -0.32487785816
          -0.32450670004 -0.32404407859 -0.35957545042 -0.35990720987 -0.35954815149 -0.36005356908
          -0.35986924171 -0.36058858037 -0.36069971323 -0.36025935411 -0.36092317104 -0.36025282741
          -0.36045894027 -0.36027887464 -0.36089900136 -0.36066061258 -0.36028182507 -0.35982462764
          -0.39592546225 -0.39625874162 -0.39590221643 -0.39640289545 -0.39621415734 -0.39694091678
          -0.39704698324 -0.39660939574 -0.39727649093 -0.39660394192 -0.39681097865 -0.39662581682
          -0.39725643396 -0.39701420069 -0.39662840962 -0.39617648721 -0.43275594711 -0.433090657
          -0.43273672462 -0.43323272467 -0.43304008245 -0.433773458 -0.43387514353 -0.43343991041
          -0.43411022425 -0.43343549967 -0.43364334106 -0.43345341086 -0.43409359455 -0.43384817243
          -0.43345597386 -0.4330085218 -0.46998381615 -0.47031998634 -0.46996814013 -0.47045981884
          -0.47026383877 -0.47100296617 -0.4711009562 -0.47066795826 -0.47134113312 -0.47066438198
          -0.47087296844 -0.47067865729 -0.47132760286 -0.47107920051 -0.47068098187 -0.47023808956
          -0.50753378868 -0.50787103176 -0.5075211525 -0.50800925493 -0.50781005621 -0.50855457783
          -0.50864881277 -0.50821775198 -0.50889354944 -0.50821518898 -0.50842434168 -0.50822639465
          -0.50888288021 -0.50863164663 -0.50822854042 -0.5077893734 -0.54533863068 -0.54567706585
          -0.54532885551 -0.54581350088 -0.54561132193 -0.54636067152 -0.546451509 -0.54602247477
          -0.54670011997 -0.54602074623 -0.54623025656 -0.54602909088 -0.54669195414 -0.546438694
          -0.54603081942 -0.54559528828 -0.58333879709 -0.58367788792 -0.58333140612 -0.58381307125
          -0.58360880613 -0.58436155319 -0.58444988728 -0.58402264118 -0.5847016573 -0.58402115107
          -0.58423119783 -0.58402740955 -0.58469563723 -0.58444035053 -0.58402884007 -0.58359658718
          -0.62148267031 -0.62182241678 -0.62147730589 -0.62195599079 -0.62174969912 -0.62250578403
          -0.62259173393 -0.62216597795 -0.62284642458 -0.62216508389 -0.6223757267 -0.62216931581
          -0.62284225225 -0.62258511782 -0.62217050791 -0.62174099684 -0.65972530842 -0.66006606817
          -0.65972197056 -0.66019845009 -0.65999054909 -0.66074943542 -0.66083359718 -0.66040879488
          -0.66109055281 -0.66040837765 -0.66061925888 -0.66041094065 -0.6610878706 -0.66082936525
          -0.66041195393 -0.65998470783 -0.6980317831 -0.69837296009 -0.69802975655 -0.69850480556
          -0.69829529524 -0.69905692339 -0.69913941622 -0.69871532917 -0.69939804077 -0.69871515036
          -0.69892627001 -0.69871664047 -0.69939684868 -0.69913715124 -0.69871735573 -0.69829189777
          -0.73637443781 -0.73671627045 -0.73637348413 -0.73684751987 -0.73663693666 -0.73740011454
          -0.73748147488 -0.7370583415 -0.73774176836 -0.73705822229 -0.73726952076 -0.73705881834
          -0.73774129152 -0.73748064041 -0.7370595336 -0.73663514853 -0.77473407984 -0.77507585287
          -0.77473366261 -0.77520656586 -0.77499562502 -0.77575975657 -0.77584046125 -0.77541780472
          -0.7761015892 -0.77541780472 -0.77562904358 -0.77541798353 -0.77610135078 -0.77584046125
          -0.77541816235 -0.77499490976 -0.81309753656 -0.81343924999 -0.81309735775 -0.81356990337
          -0.81335872412 -0.8141233325 -0.81420397758 -0.81378132105 -0.81446510553 -0.81378138065
          -0.81399267912 -0.81378120184 -0.81446504593 -0.81420391798 -0.81378132105 -0.81335872412
          -0.088785015047 -0.093616209924 -0.0887067765 -0.095491878688 -0.0925507918 -0.10315524042
          -0.10437832028 -0.09843877703 -0.10790324211 -0.098414368927 -0.10133483261 -0.098476782441
          -0.10782308131 -0.10425299406 -0.098468579352 -0.092451356351 -0.089773237705 -0.091355025768
          -0.096354864538 -0.083238020539 -0.087288811803 -0.096299439669 -0.091298356652 -0.046241164207
          -0.046154268086 -0.046015497297 -0.045963875949 -0.046088404953 -0.046040911227 -0.046074714512
          -0.046135056764 -0.046095907688 -0.046299953014 -0.045969258994 -0.046158190817 -0.045880921185
          -0.028600266203 -0.028584262356 -0.028411446139 -0.028312625363 -0.028425062075 -0.028385935351
          -0.02839782089 -0.028456082568 -0.028429362923 -0.028652835637 -0.028381042182 -0.028598934412
          -0.028249494731 -0.01558058057 -0.015540296212 -0.015364640392 -0.015266239643 -0.015397038311
          -0.015366164036 -0.015370966867 -0.015418086201 -0.015401749872 -0.015619712882 -0.015344272368
          -0.015551649965 -0.015221788548 -0.0067512569949 -0.0067102271132 -0.0065356399864 -0.0064355437644
          -0.0065708355978 -0.0065467166714 -0.006545313634 -0.0065814792179 -0.0065753469244 -0.0067800227553
          -0.0065258452669 -0.00672179088 -0.0064077023417 -0.0018258536002 -0.0017704496859 -0.0015428672777
          -0.0014151320793 -0.0015877577243 -0.0015756415669 -0.0015548287192 -0.0015948781511 -0.0015928135253
          -0.0018455741229 -0.0015440799762 -0.001783867483 -0.0014042763505 1.7210306802e-13 1.7477445272e-12
          -1.641482306e-12 6.957664154e-13 -7.7990473238e-13 -1.2926244547e-13 -9.8611765455e-14 1.1534093383e-14
          1.2198937166e-14 0 0 0 -4.2746563769e-15
        </DataArray>
        <DataArray type="Float32" Name="uz" format="ascii" RangeMin="-0.068608745933" RangeMax="0.066690891981">
          -0.013923801482 -0.0075883534737 -0.014727758244 -0.0046754721552 0.0062377625145 0.0032949589659
          0.011283493601 -0.0066668172367 0.0020732888952 0.0030678694602 0.0042333318852 0.021750478074
          0.013469527476 0.015486211516 -0.022210940719 -0.015931589529 -0.0025045187213 -0.0034997181501
          -0.0015988539672 0.011659777723 0.014889024198 0.0053135091439 0.021788626909 -0.0057353097945
          -0.012117760256 -0.02227990143 -0.00020725803915 0.047798451036 0.048584010452 0.058267917484
          0.047391515225 0.048194296658 0.057429388165 0.036429073662 0.036525528878 0.033940464258
          0.034118115902 0.034480169415 0.04389898479 0.047380734235 0.034718796611 0.043734066188
          0.04706287384 0.03003952466 0.030503742397 0.038916748017 0.038941495121 0.027710305527
          0.028214871883 0.055852875113 0.05517462641 0.01957042329 0.020505361259 0.016494076699
          0.017511244863 0.02198613435 0.022690368816 0.061338949949 0.060417152941 0.048183895648
          0.0489683263 0.059033099562 0.03634890914 0.033790849149 0.034267291427 0.044020760804
          0.047681838274 0.029625782743 0.038905769587 0.027263469994 0.056461494416 0.018776712939
          0.015614554286 0.021350571886 0.062194492668 0.048524826765 0.049300964922 0.059716317803
          0.036273453385 0.033654421568 0.034076347947 0.04412862286 0.047943275422 0.029258411378
          0.038891579956 0.026864133775 0.056998956949 0.018068550155 0.01483099442 0.020785240456
          0.062951900065 0.048824436963 0.049595020711 0.060315914452 0.036207240075 0.033534869552
          0.033907357603 0.044222984463 0.048173397779 0.028933130205 0.038878839463 0.026511896402
          0.057471759617 0.017442684621 0.014139208943 0.020286727697 0.063617907465 0.049085639417
          0.049850799143 0.060839392245 0.036148440093 0.033429414034 0.033758491278 0.044304393232
          0.048373941332 0.028647864237 0.038866814226 0.02620276995 0.057884264737 0.016895284876
          0.013533957303 0.019850160927 0.064199246466 0.049311000854 0.050071626902 0.061291527003
          0.036096684635 0.033337075263 0.03362897411 0.044374071062 0.048546336591 0.028400233015
          0.038855716586 0.025934735313 0.058240383863 0.016420450062 0.013008973561 0.019471481442
          0.064701467752 0.049502577633 0.05025954172 0.061677690595 0.036051757634 0.033257447183
          0.033517293632 0.044432744384 0.048693224788 0.028187599033 0.038845352829 0.025704586878
          0.058544300497 0.01601359807 0.012559476309 0.019146734849 0.065130352974 0.04966397211
          0.05041724816 0.062002625316 0.036012820899 0.033189568669 0.033422157168 0.044481530786
          0.048816069961 0.02800713107 0.038835600019 0.025509444997 0.05879964307 0.015669193119
          0.012179300189 0.018871979788 0.065491385758 0.049797300249 0.050547961146 0.062272142619