<VTKFile type="UnstructuredGrid" version="1.0" byte_order="LittleEndian" header_type="UInt64">
  <UnstructuredGrid>
    <Piece NumberOfPoints="791" NumberOfCells="973">
      <PointData>
        <DataArray type="Float32" Name="ux" format="ascii" RangeMin="0" RangeMax="0.58881300688">
          0.074131406844 0.12230413407 0.36311101913 0.32350900769 0.46869340539 0.54891461134
          0.58417218924 0.12620952725 0.3631259203 0.24495257437 0.53958946466 0.33283302188
          0.36915692687 0.16667488217 0.57276105881 0.096137166023 0.46807146072 0.47368952632
          0.12496559322 0.21843901277 0.24959340692 0.39762377739 0.35193175077 0.22725850344
          0.52665382624 0.4072239697 0.48416084051 0.24580842257 0.16311916709 0.31648242474
          0.14290167391 0.31850740314 0.45658183098 0.29742056131 0.085267625749 0.54257875681
          0.072461225092 0.46945673227 0.16516204178 0.34904709458 0.46056199074 0.068851009011
          0.13770887256 0.50557655096 0.10657908022 0.12778304517 0.16499164701 0.30341491103
          0.52620244026 0.42576482892 0.19051496685 0.22091022134 0.33427891135 0.51768833399
          0.09265871346 0.37736138701 0.40780112147 0.46925929189 0.11763311923 0.30434709787
          0.37866637111 0.10810845345 0.30365854502 0.29058590531 0.29641294479 0.11079228669
          0.28642293811 0.18348263204 0.19897419214 0.32850152254 0.34028884768 0.14072862267
          0.5776617527 0.24776703119 0.38604965806 0.40813139081 0.17305205762 0.58159303665
          0.42015731335 0.5330683589 0.53696966171 0.4540797472 0.38938358426 0.10189913213
          0.4191916585 0.34182474017 0.16329807043 0.078860320151 0.44934931397 0.3666998744
          0.13659363985 0.3244998157 0.49407228827 0.57441997528 0.47600409389 0.20723684132
          0.11339365691 0.44456881285 0.48046818376 0.1811157912 0.22549341619 0.1713565737
          0.48006528616 0.23903919756 0.38979443908 0.20014333725 0.26100260019 0.57644098997
          0.32893395424 0.34448668361 0.10497933626 0.3107175827 0.34550836682 0.069993808866
          0.28454604745 0.075099729002 0.43440103531 0.56274664402 0.29205954075 0.36079826951
          0.47032949328 0.43998548388 0.34832337499 0.24769313633 0.11542677879 0.26655328274
          0.36063718796 0.23801954091 0.27752506733 0.5317966938 0.26070523262 0.1028451845
          0.26816752553 0.14265711606 0.32853451371 0.58442831039 0.13570828736 0.44697538018
          0.54062491655 0.075780630112 0.4709880054 0.38602799177 0.4939276576 0.47896358371
          0.23021447659 0.51787108183 0.47536477447 0.52410364151 0.33390015364 0.11189971119
          0.18248638511 0.40613383055 0.48309785128 0.36509922147 0.21374337375 0.33372414112
          0.19024024904 0.42754909396 0.51395857334 0.56667733192 0.062690727413 0.065200425684
          0.17739580572 0.2521314919 0.34983000159 0.39840206504 0.51606041193 0.19950906932
          0.15777626634 0.41778078675 0.3923920393 0.5357593298 0.4545853138 0.2815566957
          0.14359681308 0.26909998059 0.08579492569 0.52573937178 0.28549161553 0.42716637254
          0.47645038366 0.20994614065 0.57282781601 0.4057764411 0.33211046457 0.2920948863
          0.10600524396 0.526917696 0.26833245158 0.30943062901 0.38162395358 0.45708659291
          0.39317762852 0.46960824728 0.29424652457 0.47234907746 0.15071077645 0.38692414761
          0.11246061325 0.21542660892 0.52276653051 0.20995110273 0.095229737461 0.33886629343
          0.47631528974 0.11715392768 0.061884008348 0.30428552628 0.25970843434 0.11977403611
          0.2710198462 0.24035012722 0.12382396311 0.17096303403 0.14404150844 0.28965640068
          0.37784963846 0.22484742105 0.51946568489 0.53147411346 0.3387363255 0.49511131644
          0.067588143051 0.37799325585 0.17859454453 0.34476038814 0.4323785007 0.37069147825
          0.40155369043 0.24353934824 0.46212536097 0.31193464994 0.33857297897 0.27191480994
          0.19505096972 0.30423173308 0.12625744939 0.11255156994 0.15673430264 0.16677561402
          0.55455052853 0.31796982884 0.56164872646 0.35826975107 0.4559815228 0.57175922394
          0.38990417123 0.24157229066 0.37834587693 0.52743411064 0.066360928118 0.090179249644
          0.36363467574 0.37614390254 0.13545024395 0.27498453856 0.41179129481 0.37594172359
          0.32998511195 0.47073420882 0.33248075843 0.13776530325 0.26324546337 0.37991335988
          0.48139050603 0.43117004633 0.29621109366 0.4847921133 0.38738322258 0.076463624835
          0.42954409122 0.062186606228 0.44102054834 0.2266073972 0.19729009271 0.39137482643
          0.26192262769 0.26382413507 0.54728579521 0.17635050416 0.11726442724 0.35390523076
          0.27176809311 0.5185829401 0.27711981535 0.29746559262 0.44627636671 0.23859959841
          0.21206454933 0.28590217233 0.35505369306 0.26837942004 0.39121615887 0.19995376468
          0.26841190457 0.19647306204 0.11626383662 0.31781381369 0.47018453479 0.498329252
          0.47091782093 0.29077088833 0.11808370054 0.3739836812 0.42855411768 0.24331098795
          0.34171557426 0.41766479611 0.42259263992 0.39200869203 0.52487462759 0.22092461586
          0.38917586207 0.45215880871 0.15975281596 0.34084847569 0.24967190623 0.58585518599
          0.37434515357 0.26697924733 0.13062913716 0.096117317677 0.58881300688 0.1525631249
          0.16749329865 0.49423331022 0.09740357101 0.44802561402 0.39854001999 0.08657682687
          0.29930850863 0.56686705351 0.4992903173 0.51494115591 0.39881640673 0.14712771773
          0.069630078971 0.18552090228 0.29137653112 0.096037074924 0.41354849935 0.51082259417
          0.44181200862 0.1046924144 0.53169703484 0.25822690129 0.53336423635 0.36442136765
          0.37487375736 0.28380489349 0.29384043813 0.38151049614 0.11666701734 0.08091507107
          0.27207228541 0.12284505367 0.4476454556 0.15105627477 0.069051228464 0.23255971074
          0.19037970901 0.18529042602 0.29786744714 0.33220240474 0.53093600273 0.43675810099
          0.57186579704 0.32486510277 0.56826251745 0.087127991021 0.55562484264 0.2704834342
          0.094943642616 0.3972633481 0.14970043302 0.39204087853 0.35992127657 0.11899290979
          0.27147006989 0.099153727293 0.47124004364 0.50357574224 0.14532148838 0.45346722007
          0.49185428023 0.50801539421 0.30724853277 0.52946603298 0.53407490253 0.12112034112
          0.1515071243 0.40551173687 0.18583597243 0.15742386878 0.067198611796 0.52867615223
          0.20107793808 0.48207956553 0.56410527229 0.50795888901 0.57099819183 0.54013639688
          0.41476991773 0.58197844028 0.2279522568 0.13869819045 0.11439618468 0.51678389311
          0.41394397616 0.51536732912 0.56453150511 0.43033847213 0.3189662993 0.21148654819
          0.23625740409 0.15367993712 0.36695030332 0.1930899322 0.30359387398 0.40737563372
          0.46407026052 0.17943131924 0.14801673591 0.084923878312 0.25898295641 0.46242421865
          0.1839094907 0.19409762323 0.20933997631 0.065234728158 0.49753460288 0.46929231286
          0.53280425072 0.50239604712 0.13486976922 0.46396803856 0.46049761772 0.37939953804
          0.17393320799 0.074962258339 0.57572299242 0.085687145591 0.47983777523 0.12482392043
          0.44256827235 0.26623517275 0.29411163926 0.34159734845 0.33883568645 0.4953827858
          0.36684399843 0.33873462677 0.45667403936 0.10380796343 0.30291327834 0.082303717732
          0.57363259792 0.45028036833 0.45216521621 0.19135220349 0.07854770869 0.34415239096
          0.35539188981 0.43258261681 0.25063753128 0.34214651585 0.189872697 0.10168077052
          0.11269320548 0.43769559264 0.28983792663 0.51534742117 0.51953160763 0.22241537273
          0.55793648958 0.11963605136 0.26610851288 0.077603273094 0.44494152069 0.14084474742
          0.35491076112 0.51823157072 0.17302203178 0.10811082274 0.30233123899 0.53531980515
          0.28051048517 0.15279982984 0.39771586657 0.45466288924 0.38792642951 0.12784729898
          0.072047352791 0.19014565647 0.53441625834 0.4434171319 0.17170934379 0.52664870024
          0.56752610207 0.44227400422 0.28884673119 0.15895479918 0.19805528224 0.16638021171
          0.096868984401 0.5521107316 0.47231075168 0.52392965555 0.26316612959 0.5731998086
          0.30404117703 0.37855833769 0.54583090544 0.21040768921 0.43976199627 0.41669425368
          0.062100809067 0.53280740976 0.16173958778 0.1298250109 0.060499683022 0.16904805601
          0.18965792656 0.47054097056 0.48836037517 0.41364648938 0.125944525 0.31698489189
          0.1521396488 0.34175443649 0.16504824162 0.22519047558 0.56184011698 0.16301672161
          0.44943636656 0.25769266486 0.48801124096 0.4157345593 0.39798307419 0.39068138599
          0.55503296852 0.37743249536 0.27490407228 0.54832661152 0.43834963441 0.11328235269
          0.15101794899 0.20496371388 0.11033439636 0.45390501618 0.47722330689 0.32842430472
          0.16040728986 0.31171837449 0.24163497984 0.56957346201 0.082040049136 0.062704496086
          0.071669138968 0.21451558173 0.4367159009 0.10946431011 0.53133630753 0.1128686592
          0.55027455091 0.4585519731 0.15938784182 0.28829997778 0.2482316941 0.4661038816
          0.2680708766 0.40239152312 0.33699375391 0.42108738422 0.2146705389 0.35962221026
          0.43057364225 0.13130247593 0.40228974819 0.17087192833 0.37564516068 0.3893584013
          0.25020805001 0.46626982093 0.17535580695 0.46340185404 0.39364692569 0.4659692347
          0.30652603507 0.2726546824 0.30476510525 0.56484615803 0.15657454729 0.11728832126
          0.55592006445 0.55766028166 0.37183067203 0.18278045952 0.55462884903 0.51434588432
          0.41334500909 0.26848247647 0.15861940384 0.41775935888 0.22531791031 0.34965702891
          0.36050713062 0.22107496858 0.14243648946 0.37466645241 0.24178977311 0.3147906661
          0.078287422657 0.18306577206 0.11147921532 0.12892983854 0.3020376265 0.31205677986
          0.17097353935 0.25117006898 0.29399037361 0.33816123009 0.10886788368 0.21922941506
          0.36624374986 0.21342340112 0.54138857126 0.32370701432 0.4934104681 0.37923902273
          0.44356405735 0.16707892716 0.21685345471 0.32235401869 0.46513232589 0.32045385242
          0.5230666399 0.422285676 0.42313915491 0.55974286795 0.1454193294 0.25038725138
          0.28971758485 0.30934810638 0.37678188086 0.33016401529 0.34897193313 0.45394968987
          0.41310065985 0.23357337713 0.4560725987 0.18066613376 0.49972081184 0.39514908195
          0.45606920123 0.52269089222 0.40398189425 0.29842796922 0.14613360167 0.36935195327
          0.56348776817 0.42242720723 0.25475245714 0.52682769299 0.38799372315 0.1137803793
          0.27056148648 0.28015351295 0.2222532481 0.46279799938 0.54270935059 0.56356656551
          0.15857516229 0.44775697589 0.27151298523 0.32108262181 0.24614775181 0.33135682344
          0.2161860913 0.35314711928 0.25269272923 0.14219218493 0.5051240325 0.1879670471
          0.5454826951 0.11677385867 0.48295670748 0.23699593544 0.13418680429 0.46857643127
          0.13262826204 0.069080427289 0.43923079967 0.4942920804 0.41346126795 0.1212669462
          0.49977305532 0.17802540958 0.35173052549 0.49164062738 0.15504576266 0.14913167059
          0.060834355652 0.36786183715 0.52801537514 0.42261493206 0.33436393738 0.23184299469
          0.50853490829 0.11676134169 0.22195824981 0.23629054427 0.47726947069 0.1664301604
          0.076599307358 0.32147243619 0.39550039172 0.21668975055 0.14455704391 0.36710739136
          0.21776583791 0.35986304283 0.11077889055 0.47689658403 0.22729077935 0.20812547207
          0.43414977193 0.34900641441 0.58336943388 0.56320744753 0.13813628256 0.1995986551
          0.43047592044 0.50082695484 0.53466790915 0.38069477677 0.10583129525 0.47331553698
          0.45881322026 0.53330391645 0.35553818941 0.51711946726 0.50673925877 0.23234190047
          0.34857308865 0.36487016082 0.5311242342 0.13397654891 0.31982460618 0.24532090127
          0.23048445582 0.43642497063 0.076568767428 0.45065769553 0.45425677299 0.075991816819
          0.52014362812 0.47727131844 0.51518195868 0.51800256968 0.58809226751 0.1382201314
          0.29139202833 0.26022291183 0.3124486804 0.070198751986 0.4836140275 0.13974078
          0.12989060581 0.30168545246 0.54629093409 0.36259043217 0.33623459935 0.51128268242
          0.45903009176 0.2735876143 0.1327123493 0.11265596747 0 0
          0 0 0 0 0 0
          0 0 0 0 0
        </DataArray>
        <DataArray type="Float32" Name="uy" format="ascii" RangeMin="0" RangeMax="0.58941066265">
          0.11338916421 0.25047627091 0.14758591354 0.50524175167 0.52246242762 0.32410636544
          0.24039402604 0.35475727916 0.13097009063 0.33832800388 0.33251845837 0.3271214962
          0.29614692926 0.39582440257 0.32199248672 0.31965348125 0.54755282402 0.13369907439
          0.50855123997 0.11352127045 0.10894921422 0.47086375952 0.37481614947 0.5278185606
          0.26926124096 0.23167724907 0.12788659334 0.35321459174 0.22932286561 0.28092122078
          0.53333538771 0.58667576313 0.56928086281 0.49223050475 0.18859505653 0.12315899134
          0.37519052625 0.11247325689 0.19443958998 0.35190615058 0.42713469267 0.068300887942
          0.47456228733 0.58765625954 0.42407351732 0.40175148845 0.41865548491 0.2108989507
          0.38823896646 0.15918779373 0.34740978479 0.13231742382 0.26291781664 0.27089369297
          0.36049959064 0.31104925275 0.16271862388 0.10879787803 0.56769227982 0.12938405573
          0.37115871906 0.39888742566 0.30174824595 0.38347870111 0.45331856608 0.53301858902
          0.53929322958 0.53508782387 0.18352149427 0.58841657639 0.17726379633 0.37544456124
          0.30083018541 0.58041328192 0.077589944005 0.40278333426 0.060713805258 0.15462633967
          0.1814840585 0.20134620368 0.080638900399 0.20107203722 0.26449456811 0.06686039269
          0.55088239908 0.29009062052 0.13858309388 0.2019598484 0.074402339756 0.10748452693
          0.53868532181 0.30711308122 0.39813047647 0.4194714725 0.4182767272 0.067334212363
          0.13504782319 0.45544919372 0.42564323545 0.36627966166 0.34977164865 0.57038426399
          0.29615911841 0.43210542202 0.45879438519 0.4443705678 0.45252597332 0.16282567382
          0.3963033855 0.13559056818 0.21415549517 0.51595562696 0.23387317359 0.27868297696
          0.33136162162 0.48704981804 0.55449932814 0.52259808779 0.19805394113 0.088420309126
          0.47970250249 0.27135100961 0.15183003247 0.35562935472 0.19528748095 0.43928831816
          0.12413075566 0.11857736856 0.37721166015 0.22492554784 0.5575722456 0.13455148041
          0.42669773102 0.45576530695 0.080283746123 0.1951893568 0.35860657692 0.49844789505
          0.41381439567 0.11855146289 0.55042934418 0.17145299911 0.31017753482 0.12632964551
          0.39705222845 0.34239029884 0.13272255659 0.33237442374 0.54968225956 0.5639026165
          0.37605562806 0.40122354031 0.2659047246 0.082031711936 0.19066208601 0.26013427973
          0.25023949146 0.068554639816 0.54193401337 0.15146139264 0.42967581749 0.52963244915
          0.11895217001 0.55038070679 0.1414078027 0.13770599663 0.34880071878 0.48432865739
          0.44645768404 0.52098184824 0.25393202901 0.53662896156 0.57407456636 0.15659341216
          0.48516753316 0.30096226931 0.10908047855 0.5828897357 0.11389668286 0.29480654001
          0.26411640644 0.15464760363 0.11699932069 0.17536580563 0.28541570902 0.5123437047
          0.069887772202 0.41733217239 0.20352621377 0.21427461505 0.1143129468 0.2707414031
          0.50107097626 0.074106000364 0.26008722186 0.55618417263 0.15403713286 0.46454420686
          0.23194558918 0.35688385367 0.18263669312 0.099752955139 0.53770565987 0.15305286646
          0.42255029082 0.26501774788 0.40402415395 0.10369883478 0.13171960413 0.5266264677
          0.17133595049 0.42668488622 0.079316169024 0.41386803985 0.22267217934 0.40627661347
          0.12801328301 0.55983358622 0.092277005315 0.38364732265 0.50927227736 0.56818848848
          0.5077444911 0.2296974659 0.19926908612 0.067839354277 0.2357583791 0.1486479342
          0.29440382123 0.16822902858 0.19605122507 0.49204126 0.36816340685 0.22209951282
          0.097885102034 0.40336495638 0.17982447147 0.38514244556 0.20888620615 0.39146032929
          0.15089266002 0.4812528789 0.12395116687 0.1878284961 0.31164312363 0.14147923887
          0.44059816003 0.063816018403 0.46821969748 0.25335299969 0.14439329505 0.098429240286
          0.49065965414 0.17719636858 0.2783356905 0.068267337978 0.27801963687 0.40180194378
          0.084750704467 0.48108237982 0.11881237477 0.36644905806 0.39758321643 0.30886003375
          0.51834434271 0.33412766457 0.312469244 0.41890537739 0.40025731921 0.092747800052
          0.22463874519 0.34199106693 0.16538198292 0.28944957256 0.40395638347 0.50295549631
          0.22116479278 0.34193062782 0.42324563861 0.16414384544 0.41720244288 0.066739566624
          0.25129616261 0.44184038043 0.061870023608 0.58279597759 0.39811301231 0.53558790684
          0.23495858908 0.55519944429 0.28530302644 0.40882667899 0.33389616013 0.40878179669
          0.18873178959 0.13929881155 0.40265464783 0.14250707626 0.21493639052 0.23500810564
          0.21212290227 0.56801861525 0.25100231171 0.41292876005 0.41684737802 0.15702965856
          0.10553549975 0.31543681026 0.4057996273 0.44700342417 0.42331922054 0.4371047914
          0.080696441233 0.1663698256 0.58167886734 0.46110874414 0.35235863924 0.36536034942
          0.15477287769 0.5438002944 0.33522117138 0.16766665876 0.08770185709 0.18646734953
          0.53154999018 0.36342093349 0.061207916588 0.40762266517 0.46240487695 0.1427911669
          0.42398959398 0.37155640125 0.23440174758 0.29239726067 0.24699220061 0.2926864326
          0.30203026533 0.57438892126 0.55378723145 0.56307524443 0.34127244353 0.20059329271
          0.2099532932 0.16106055677 0.24425457418 0.46267774701 0.24503366649 0.35436308384
          0.5812188983 0.33608368039 0.21760213375 0.062248826027 0.30121293664 0.4829749167
          0.50550156832 0.17438066006 0.15922220051 0.27628332376 0.091792009771 0.45393723249
          0.33491829038 0.35872995853 0.43983376026 0.47477447987 0.4612556994 0.11964520812
          0.1854916513 0.41882178187 0.4373357892 0.086539693177 0.28567695618 0.064026653767
          0.29573002458 0.32224237919 0.11224330217 0.21434022486 0.38553625345 0.27167627215
          0.46817240119 0.21037074924 0.50134021044 0.1370857656 0.42266508937 0.44543540478
          0.52984058857 0.060390718281 0.41904103756 0.19664874673 0.44458198547 0.2136143297
          0.14946085215 0.38491970301 0.14306125045 0.35312306881 0.55805820227 0.48073029518
          0.27409359813 0.43250063062 0.29532757401 0.49634751678 0.15416015685 0.50671237707
          0.49815109372 0.21640311182 0.22713568807 0.47544565797 0.12172134966 0.19523975253
          0.55639886856 0.50928449631 0.46232804656 0.16015130281 0.49948549271 0.50089585781
          0.2915379703 0.090939849615 0.082555830479 0.14320528507 0.50467962027 0.27876910567
          0.12403786182 0.49190565944 0.39945852757 0.50768190622 0.39370426536 0.38255605102
          0.56061661243 0.11705440283 0.54194295406 0.36699432135 0.19612832367 0.086614795029
          0.44603350759 0.30469483137 0.23385557532 0.23215022683 0.086442135274 0.24542112648
          0.48053461313 0.28862285614 0.33460402489 0.070076569915 0.51657789946 0.083617322147
          0.58632344007 0.35556507111 0.36099717021 0.58654505014 0.32527568936 0.24811431766
          0.27586090565 0.26890447736 0.29541045427 0.12990982831 0.4263035655 0.44571119547
          0.21636666358 0.060171231627 0.29628199339 0.40245983005 0.39538800716 0.26772636175
          0.5054513216 0.17617484927 0.45181661844 0.29221001267 0.16251209378 0.30759650469
          0.36962240934 0.37079012394 0.22574992478 0.23034377396 0.13428971171 0.075805515051
          0.47755405307 0.05902306363 0.55425512791 0.40283533931 0.22147248685 0.10685556382
          0.43526139855 0.23296220601 0.20661406219 0.30507826805 0.21966324747 0.50720828772
          0.4516428411 0.23166185617 0.15563869476 0.34071266651 0.42733725905 0.065986692905
          0.13233429193 0.17828004062 0.18718551099 0.30558314919 0.26357635856 0.39887991548
          0.39036354423 0.24511070549 0.063547968864 0.21149104834 0.45653405786 0.48549833894
          0.5700969696 0.10660349578 0.38969010115 0.16082587838 0.24921523035 0.32916200161
          0.27615877986 0.50265222788 0.11381880939 0.35249274969 0.30328643322 0.23095807433
          0.20166507363 0.4370085299 0.50395488739 0.21466740966 0.53729319572 0.58689987659
          0.36522755027 0.11898034811 0.40439805388 0.30634877086 0.4569401741 0.16120496392
          0.082748785615 0.30178490281 0.21178147197 0.11505745351 0.17683273554 0.47179022431
          0.15671257675 0.26177424192 0.26466006041 0.074649564922 0.43086698651 0.32576498389
          0.50994741917 0.13280531764 0.49569275975 0.176730901 0.39628100395 0.31375193596
          0.5569087863 0.18607357144 0.57995069027 0.54886871576 0.56153970957 0.30721750855
          0.31580749154 0.46110233665 0.25012159348 0.51960998774 0.10381902009 0.36623191833
          0.061693552881 0.43507388234 0.38355717063 0.45549967885 0.56104397774 0.14250865579
          0.30805599689 0.21719580889 0.37286818027 0.49116763473 0.58890378475 0.48555326462
          0.32259485126 0.24031969905 0.16569764912 0.53910666704 0.1885946542 0.16026163101
          0.2329569459 0.37181046605 0.37370783091 0.3810620904 0.090252123773 0.16043071449
          0.40619763732 0.23611794412 0.31257000566 0.57060337067 0.54936820269 0.53942227364
          0.5285564065 0.35676550865 0.29186728597 0.5628542304 0.30220934749 0.25735017657
          0.23132432997 0.48359689116 0.39764407277 0.55099469423 0.3215200901 0.15519179404
          0.52573770285 0.43390798569 0.38765487075 0.53909760714 0.52892613411 0.45137345791
          0.05959578231 0.19788770378 0.32632768154 0.40796104074 0.49170127511 0.1787301302
          0.19570992887 0.49961271882 0.54948246479 0.086348228157 0.4736264348 0.14916993678
          0.31062808633 0.22056874633 0.12224430591 0.38763737679 0.11186251789 0.40791803598
          0.34036594629 0.24866180122 0.38932061195 0.12338458747 0.3224055171 0.32046601176
          0.15362343192 0.48041689396 0.53950244188 0.21354268491 0.430195719 0.30519515276
          0.32350438833 0.44531539083 0.26280662417 0.54552400112 0.20444048941 0.23146533966
          0.06071402505 0.37362712622 0.50143665075 0.57483047247 0.44091793895 0.53867083788
          0.3230342567 0.18188260496 0.39293900132 0.43101584911 0.53101533651 0.17775604129
          0.50143414736 0.50026541948 0.19070552289 0.23759508133 0.45461881161 0.18877731264
          0.086890347302 0.26246488094 0.21519248188 0.39940142632 0.20823609829 0.12594209611
          0.49162599444 0.14905674756 0.29636564851 0.58188509941 0.31519275904 0.54757112265
          0.20567423105 0.12562328577 0.5323856473 0.57552570105 0.48788660765 0.5045529604
          0.39752793312 0.31248813868 0.33160561323 0.27189305425 0.26840901375 0.13186588883
          0.39655065536 0.58941066265 0.54306793213 0.46691545844 0.38128864765 0.33869108558
          0.45741483569 0.39144742489 0.40996009111 0.4534137547 0.11702651531 0.14467386901
          0.46309188008 0.58421224356 0.43931341171 0.53429460526 0.2854218781 0.28514102101
          0.093162491918 0.47518697381 0.41649311781 0.10284028202 0.41995459795 0.1094007045
          0.23538137972 0.54775762558 0.498495996 0.35064676404 0.4570710361 0.1967061758
          0.37693795562 0.27585935593 0.13337831199 0.1595671773 0.44098767638 0.15097944438
          0.20654416084 0.067220129073 0.060120165348 0.32259443402 0.48028600216 0.49183598161
          0.17036233842 0.44414931536 0.58771800995 0.22953495383 0.39323666692 0.22761072218
          0.58525055647 0.17093293369 0.10109484196 0.36135271192 0.37255331874 0.2442484349
          0.11866543442 0.27239307761 0.33832842112 0.25592121482 0.35842764378 0.38547822833
          0.17214757204 0.33165338635 0.27019539475 0.28718903661 0.16528405249 0.090484298766
          0.50875747204 0.35808146 0.43407338858 0.11750362068 0.41468888521 0.31274804473
          0.44068568945 0.35880756378 0.56809449196 0.28136616945 0.23767535388 0.35599568486
          0.28401651978 0.28212708235 0.072220608592 0.3573795259 0.13263686001 0.18457020819
          0.22359326482 0.51321148872 0.28897449374 0.40564069152 0.40577965975 0.42190057039
          0.53557759523 0.28183048964 0.29948320985 0.26834380627 0 0
          0 0 0 0 0 0
          0 0 0 0 0
        </DataArray>
        <DataArray type="Float32" Name="uz" format="ascii" RangeMin="0" RangeMax="0.58997827768">
          0.26463359594 0.54951637983 0.47497782111 0.48519903421 0.22220471501 0.41694948077
          0.21706710756 0.065529942513 0.07608730346 0.48951485753 0.13992717862 0.35936543345
          0.091954506934 0.33140528202 0.20917870104 0.28806841373 0.44479733706 0.5397221446
          0.33983117342 0.21242934465 0.084767729044 0.14003150165 0.4445913434 0.29495620728
          0.56158870459 0.45356017351 0.15411767364 0.23445436358 0.56006205082 0.44634988904
          0.42016237974 0.098321594298 0.12591065466 0.35130137205 0.50975656509 0.42462062836
          0.093293108046 0.36653083563 0.36513829231 0.46369865537 0.2720951736 0.16741740704
          0.32861822844 0.54202622175 0.0848775208 0.54696798325 0.18321849406 0.12967218459
          0.49593484402 0.1959593147 0.12930050492 0.21052214503 0.37228479981 0.34235030413
          0.55327743292 0.49372288585 0.21510243416 0.082553587854 0.19348357618 0.55315983295
          0.21580258012 0.55159467459 0.18850775063 0.50495409966 0.50827914476 0.39374309778
          0.075264140964 0.57690906525 0.16709476709 0.45646625757 0.24340166152 0.14707866311
          0.066381454468 0.082887656987 0.0791394189 0.28610092402 0.12238632888 0.51719337702
          0.49500402808 0.10698216408 0.33053591847 0.23245984316 0.4221021235 0.17190919816
          0.50740426779 0.57292020321 0.48714181781 0.22996543348 0.55352330208 0.26170760393
          0.14402705431 0.1927922368 0.25127509236 0.17319475114 0.54033875465 0.38246244192
          0.12249538302 0.30891832709 0.2056132853 0.32121446729 0.56173944473 0.19947122037
          0.23305724561 0.34583362937 0.35691201687 0.37262329459 0.32732474804 0.23954619467
          0.37596994638 0.17216254771 0.45682701468 0.48624914885 0.2871157527 0.35802742839
          0.32334661484 0.26473641396 0.10648388416 0.19434927404 0.5597589016 0.0772145316
          0.078387588263 0.40425556898 0.55084496737 0.48385372758 0.53069639206 0.34963729978
          0.094896815717 0.23108799756 0.29704993963 0.07785833627 0.23970282078 0.4673640728
          0.13618889451 0.24461008608 0.55032706261 0.46738895774 0.48419630527 0.49320840836
          0.31792634726 0.44516962767 0.35470700264 0.41909050941 0.3365586102 0.14780044556
          0.45201897621 0.36924552917 0.43350082636 0.57501763105 0.28588494658 0.23090666533
          0.063182368875 0.58200615644 0.3327370882 0.47698673606 0.16177749634 0.32546448708
          0.54611968994 0.40417230129 0.26431319118 0.15866015851 0.53131383657 0.15282313526
          0.29936441779 0.11171693355 0.49898257852 0.5503590107 0.30391421914 0.21354465187
          0.26114997268 0.20548801124 0.38581377268 0.080087251961 0.56808048487 0.17573668063
          0.22529532015 0.34166297317 0.4887522459 0.33577907085 0.37780359387 0.18450132012
          0.13351532817 0.24975225329 0.52047049999 0.24448350072 0.24140165746 0.42171216011
          0.087179236114 0.30359661579 0.37739950418 0.1781591028 0.48685887456 0.25376099348
          0.49068614841 0.37249463797 0.40282183886 0.13446079195 0.2500385344 0.4702090323
          0.52065640688 0.40122759342 0.41687899828 0.52626830339 0.28848880529 0.55167961121
          0.54231345654 0.3755659461 0.12601990998 0.47329837084 0.40938231349 0.3682693541
          0.2993477881 0.30139967799 0.33242067695 0.33982732892 0.28931674361 0.23102794588
          0.10214857012 0.46690273285 0.08405136317 0.340967834 0.19185572863 0.45019868016
          0.51161450148 0.41367402673 0.39542129636 0.55361890793 0.17290687561 0.36940327287
          0.20184461772 0.33650538325 0.42196470499 0.5507248044 0.44629636407 0.42001587152
          0.33212664723 0.54496526718 0.56179958582 0.096462763846 0.14776022732 0.15257807076
          0.29686897993 0.39830154181 0.51865947247 0.069039471447 0.20394983888 0.21451747417
          0.54991346598 0.54946357012 0.53008520603 0.53658139706 0.12271052599 0.39923456311
          0.36839285493 0.17570190132 0.19016838074 0.44003024697 0.38394987583 0.34496283531
          0.49140536785 0.19853246212 0.31907922029 0.076501190662 0.29906773567 0.1476483196
          0.52255815268 0.50109988451 0.58741432428 0.14017270505 0.33432105184 0.42310515046
          0.40195462108 0.5071002841 0.27202221751 0.18165321648 0.35226908326 0.2226242274
          0.4505495429 0.14115394652 0.48898082972 0.38419479132 0.47436657548 0.2608858943
          0.44070485234 0.085102632642 0.47490802407 0.43488624692 0.58193445206 0.13125155866
          0.10739656538 0.36886438727 0.49968215823 0.38230496645 0.16935969889 0.46348965168
          0.23210595548 0.097518377006 0.25206288695 0.52787607908 0.1198848933 0.15892982483
          0.23403269053 0.54693508148 0.3652113378 0.21233442426 0.39757460356 0.38242337108
          0.19731776416 0.31489816308 0.19560191035 0.23335959017 0.10877269506 0.15593229234
          0.27881672978 0.54798853397 0.060898337513 0.22057388723 0.36666595936 0.5249966383
          0.14561831951 0.49424281716 0.10053814948 0.304004848 0.5212405324 0.48261579871