<VTKFile type="UnstructuredGrid" version="1.0" byte_order="LittleEndian" header_type="UInt64">
  <UnstructuredGrid>
    <Piece NumberOfPoints="791" NumberOfCells="973">
      <PointData>
        <DataArray type="Float32" Name="ux" format="ascii" RangeMin="-840322048" RangeMax="708257536">
          87869528 -33116854 -259023120 -301856384 -177126400 -10904236
          288766400 -187037216 -88326744 180287184 -80592048 62779028
          -282021888 -126403664 88964352 -287678560 -53165016 156151600
          11158929 -145310976 -339403520 -23113224 -68300272 22800170
          -70832888 46841032 204548192 -103644592 472872000 -289303360
          -371784448 659908928 -159041920 -169928880 111332752 112419160
          -75094648 174873040 131341096 -399053664 558711552 62606256
          -469726848 -145089376 -281781088 -128307016 -802024192 -480083520
          -93293296 -126759056 -17556724 87272144 79461608 20316774
          -82006080 -61737760 -37310504 48102764 -21799776 20926120
          282712896 -222690112 -105696920 27609184 35836624 -17144988
          -428016992 -24296328 -256217200 -530024064 -108330608 111776320
          -8067809.5 61086340 146965104 -25545380 459533472 -298557504
          -262377856 -44689576 27843664 18680188 -203135344 -84206248
          -344451328 -56382768 -28276098 -49101448 -144773408 119771248
          -105486728 -74506128 347176608 -423692576 -110639448 14352962
          -64684036 61512620 -135562032 65943648 -94427552 -236582576
          -145553344 -119212872 114032120 -91084968 -20975974 -57327828
          80511968 -177152608 -306280448 -1938573.125 626094272 -30399042
          -94991224 -164945952 -475961376 297017056 20988936 -315054720
          -30181744 -36956304 -136923696 20728890 47052260 -48845748
          -475512640 115615920 646049984 144938624 -288241024 -389766944
          -475150912 298030720 -54575880 -128617936 1520536 -169253120
          -65258592 15635671 -394752800 143321424 -356361696 -58523164
          160209024 -183939184 -88855856 -10741171 -258450144 380838144
          14213622 -236117136 -143606928 90289824 8522619 -229831200
          -43600248 8635302 -45680256 -12504587 -97637984 24879850
          -137398624 5594822 -402762208 291880096 -136636704 -145134784
          -123096256 -39857096 96262152 9573471 -404071680 -6683065
          -19062788 -131393248 -233485888 -231588.28125 -23174386 63302380
          125236256 249631184 -129900080 -282868128 -27170822 -76180664
          40944388 -55670552 -324071488 6230525 -13461434 -6951563
          -362451840 86535968 96007192 113009952 98824624 -218495184
          -161096272 -1005952.75 204570560 -162858656 -27694802 -145996688
          -370592320 118251920 280381536 -44914232 -718334656 -27094828
          367688384 132227200 227607472 -720536256 -107634712 196464864
          202500736 -98292648 -176796944 -282518112 3549978.75 -126521576
          362150560 -116237488 -173095200 -12638989 251083952 -123674752
          -75105184 -347947872 -87986656 -50163952 84130400 -98678480
          -182294320 -326078976 -94794288 -25745488 642006912 -185363792
          16871176 94009360 -284641632 -98436608 12393082 -840322048
          -62584440 118244432 186199680 -40620560 -56495108 -426896032
          80057488 29186378 601322432 -183770320 -237241792 21964734
          -60676752 118884208 -228055040 -512602176 -94527296 44347036
          -10540845 33705644 -123813152 -190870480 -146423456 125355120
          -292642688 71105856 -150732736 35025528 -180219632 25627158
          -32347412 243572384 -80908096 -119421264 -294413056 19295272
          -36690072 -94570752 -42630660 127515128 -243407584 -120147784
          -96034848 -161096912 -470423200 243170752 -324034784 311191712
          -18586788 -211224032 -196426976 109716064 196631856 -63613316
          51377884 44476220 -169385952 -41645416 89947496 -199470176
          -344186752 92217344 -243402640 -82517624 87386800 -20762386
          -106078752 31532566 -9103636 34726268 189954720 -94262696
          -428457568 285337120 378798240 -135206464 -590038080 -10585818
          -302317408 -240842288 83318168 -73914104 6916516.5 -168814976
          129836680 -3333492.25 -27575818 -22995654 -108475648 22859274
          4889461.5 8893909 -295547968 2930583 30836134 -89426240
          -13142860 -19951040 26087564 -64238148 36104132 -403035904
          497446848 -312180864 147935456 -113845672 418949760 -150278400
          -134611392 -194249568 -829869056 248080224 -68965264 -113299120
          -114929144 -38852996 88866352 153190224 -87261592 -44897136
          -309890112 20273182 -19287850 -105947040 102115936 -224993712
          187841312 162654864 251087792 -168329584 -601896768 -583620928
          184892048 -22997842 -320864352 -7291069.5 -41069964 528205920
          -3288678.25 -200934992 150302864 -346722912 -76173496 -392111648
          231805008 220435648 -43096304 17759852 -53444132 -114143480
          54897396 -26035944 -238223584 -27819056 -155625376 -158099008
          49859236 36728960 -252197440 -420311168 -36761560 289244928
          -88806320 -227134912 -299131840 69608312 42087340 56112508
          -97287456 -51944872 15686502 16160526 -76214760 383132800
          -381024960 201872832 -156539488 -403088736 -94955720 -84060544
          87662264 44082200 -431875136 94534768 -6584225.5 -31853316
          19497298 -141079712 47938960 -89854816 -21712904 -104434832
          -21655018 172938112 -14954181 114855352 -290330400 -175743840
          -100797464 74297704 -115703704 39708360 -114213568 -301970272
          -7462624.5 46145080 -92375248 -348528192 1531676.375 148322352
          207512608 -420123616 -241535776 -326137696 157847600 3971657.5
          11738467 -34431552 4008137.75 17339820 -61139916 8296297.5
          20278086 -272968864 114434320 355488192 222869024 -514287904
          -251546928 -518331328 324868256 30804398 -129145216 -140158272
          -106776064 -66125800 -10188052 2442438.5 -237731712 -80719760
          90556096 134373584 64854768 -592202944 -52580400 -200228592
          228557984 -9593973 -156691552 -158707008 -185615520 114396296
          83029704 -22613790 -82253648 -235918224 -83216304 -513989376
          -125429608 -2274275.5 207595936 156904640 120309856 6046023.5
          -251069424 63077000 -114251368 -141606720 -50741028 135999360
          -53428696 -10112853 -204359168 377109728 -134409536 101827784
          -273759168 -489596192 -112411616 111302512 -59017992 93832760
          6834684.5 -214512624 -56055040 -387478560 225631024 107132264
          -193793648 -204187488 -182255696 513218048 -110583136 -102120248
          -181058704 23138250 -27319494 83335192 12734223 -311712384
          -9131587 -375420576 235952208 91723432 -129091056 -195778096
          -223996000 275902080 -12957610 -47849052 -508879936 88499488
          42508140 161161984 -28788446 -311044704 119177944 -498497568
          140093008 -305368800 -43289016 -362354464 -64693828 -30417396
          168995904 -57279812 248311536 102272664 -131011600 -112562888
          23830278 -131846832 -96669760 -474166624 187976864 37517764
          -235177056 -371385536 -49079292 90298968 57313668 -174776656
          225389024 -15621579 -12323248 -188458096 180645584 -8360111.5
          -121034624 -386171360 47619712 237635904 -97654368 -306530400
          -223539200 467758112 -62894652 -10500131 -414238880 -16355365
          275183456 -95941104 63898632 -173873136 95680408 466205440
          -201634480 -497117568 83353656 -589156160 -263361808 315836192
          272058304 -352617312 47919820 75804456 79374408 10595627
          -114706696 -269772736 144369712 586560000 -234373168 -663777216
          60456532 -483584160 -175901536 -73987784 249947696 -349218592
          3626938.5 148346928 107072104 160369264 -107842560 -223361728
          158542176 101759560 -95813920 -84062704 -21615498 366821120
          -35724288 -74521688 -127813904 -498000128 -274809664 68773704
          -60394968 57019852 -70631240 -238991312 -74928360 -190245968
          75244872 708257536 -241247168 118961104 -170848864 275055840
          60067088 -713121088 -498137664 -70238880 68659072 -80789824
          23022904 -76490528 -107953120 -188153232 30189002 452232224
          -144791392 -215867680 -49608312 180617744 65716692 -78848064
          -264855472 -76064328 -21216474 -9391009 -12618836 -21151814
          142657984 -460228032 297502016 -408652032 12587026 37283092
          -15157273 -261599440 -70408688 10787303 -8087417.5 7115094.5
          -93124536 -47606204 -36126148 -112441576 -41080604 16146498
          -89592880 -73246568 -172397664 16300314 -84669192 8000952
          -260285232 101762576 -115797296 -17697306 -81562824 -193428880
          -46730020 -96747816 -228724240 -51625944 111943608 -111216152
          -12298146 -209140080 -86310616 -36485896 -129775272 -91296544
          196461952 -256356752 -502078816 57675204 -130341952 37284908
          91545912 117208040 -224227696 -11771594 -159486960 -71520976
          -227063424 -13851180 -327127872 238641536 -86899568 -418520512
          117864904 -160695056 45850620 -139158592 -252935008 -237389728
          56052372 -171576864 23145242 -147738928 -370564032 82794568
          -41320404 -146042576 -110369360 -88174904 6654448.5 -174830304
          -77461880 -52639132 -170724528 299584544 -151051232 -783027200
          130932656 168712144 -94201128 -77603000 0 0
          0 0 0 0 0 0
          0 0 0 0 0
        </DataArray>
        <DataArray type="Float32" Name="uy" format="ascii" RangeMin="-1418707072" RangeMax="1107192576">
          55794908 16815716 -96631056 844604992 -63151284 20117388
          -121450672 -352850208 -92678984 358667584 35786440 -104067976
          -37401272 122150192 152899008 -531528224 -11203617 -412837216
          15206399 -560877248 1981956.125 50805408 -14681086 -116758784
          53635660 -217759120 -404544032 250001648 -545601216 -202349008
          277038816 -531495712 -137252224 403999360 94242120 -316595008
          -173278768 -62869072 -39208908 176972272 -631807040 81338872
          198649008 -55358300 178340944 -319164480 -512522496 8116851
          665002624 -103261016 -75121704 -144117936 -200177664 61599196
          -109413456 -139008864 -187173680 150864416 136718944 58672152
          -388434112 -95157464 262764896 -212691616 -223672912 -3536841.5
          70025656 -142321840 -477927584 408703808 25942860 78169704
          -60724788 -281556864 154689520 129315712 8492056 -107727720
          -119398520 -182639344 -10098762 -5260129.5 248699280 -174594432
          -539868352 184757248 -59279128 -63940952 -4068660.75 -1358636.75
          -144503040 -8546302 375957600 -114903808 -375069280 -45426616
          -229986672 57423448 74210400 9548166 165845344 -157741120
          -257696624 -74282408 484680.4375 41301556 -255170736 38000616
          42740684 -84777696 -5183718.5 -80672376 -251258240 65261676
          -404440960 3221842.75 257068928 299712544 -170346576 -51563400
          -160198704 -217657136 -113948848 -69204616 -39993372 -49227312
          141264464 -69775168 -301870880 145782496 71711240 -32223712
          -258534848 162506480 -193637648 -109924440 -38660188 -153335248
          -53150964 -194880272 -97408216 215779344 -242548016 -15134206
          58653228 -58627452 -265226016 20980358 91489032 -315095584
          -46859620 -103922872 63514528 138983408 -57968816 -50631856
          -378597088 77060176 26209202 -13234507 66982720 -103625432
          -26190710 -155306784 -113523616 -48534224 -163444752 51645504
          -66688388 -84711496 30355940 -191869744 -15031663 17447958
          1119729.5 100935824 -73052880 -6254566 121842024 22428192
          -76908912 -120285984 -278290848 -118558896 -59842520 -167487312
          -159968432 -157702352 -236458432 85851240 -34170308 80195432
          -112136360 69745408 -36491636 -161163152 255018976 -619555520
          -205170864 54535764 246981056 -40403888 -66800756 -79338472
          -364852960 121642968 229452000 -94065888 -268758240 -27812576
          483477984 -171862944 -259991632 -267997808 -126730544 159792992
          210579088 -209142224 -137898800 -143486000 7159344 79777240
          161207216 -40501300 -208579440 100576416 531522304 -92264432
          -379184032 -234260208 -344336224 35290984 93699240 -145670608
          -196892080 -111929016 -23078838 987575.0625 -289184224 91998392
          27136856 39655488 -421777760 -115218304 550512128 -745059392
          76632792 -177626368 426378624 -65166104 -116709272 -47893780
          -411722112 -24568204 -134484880 189829632 -8117410 -97276240
          -199374384 -95870192 58760116 -180410944 134589872 -184808304
          190152224 -78206584 -20638060 39753940 -721639104 25475530
          244152528 -144242784 111863280 -4431615 -109307680 -166806208
          58865648 -35863808 -114971608 -87922952 -155871536 -92688448
          170297952 120353112 -492804736 5218586 76530824 -304084096
          240286416 -37606920 -661914752 -177496928 77233608 -189587056
          207118672 -35543816 4403398.5 -89237744 196676496 69748008
          -64749164 -110580024 -28607592 -222799232 -104859024 12787994
          -658818240 -61365760 155784688 -196567472 252697216 -42256640
          73345408 -83326368 1769688.125 108289408 -248626448 -24405314
          472121696 -470532256 -14562659 -109533736 -746148352 -39493204
          102729672 38420956 340165024 -46971332 -56396144 -230058704
          19311790 4904339.5 -199400112 -45210524 162615616 -85235936
          120624248 -43183320 -62559588 -66412432 -104349552 -160812656
          -46040436 11281701 28707428 -44130964 94578216 201346560
          -356386528 -119116936 270033664 -142213504 -530122528 -26048806
          -387646432 227341792 -339302048 621244224 345423264 -111130232
          -256628432 -164340496 -146905040 24256452 -203846064 52690480
          9614614 -139309872 -72815992 -12245624 -174158704 -355031840
          90352984 -182192736 -181307536 58772012 28367122 78319384
          40533816 -2364782.25 -360193504 -11596717 -109649760 -102222960
          -229668928 -350519328 10383194 -92063176 -158084736 4652319.5
          200104176 130716872 76281040 181556784 16653647 185816016
          -173670256 -251702416 -118864288 -211067120 -96264968 -28013762
          -121744200 52351192 -53987444 -480662976 200239344 -57801156
          -244680560 -276282720 -105513016 125426600 115178816 164531408
          147236320 -163883888 -93749416 -83964560 -218093968 53396952
          56483940 -334525856 101507056 36246060 -132588880 -347943680
          69769480 -166079200 147259072 88826072 -105531600 -114029624
          57814164 16144857 -215766864 -7030098.5 55815020 -403623392
          187181920 -105000552 -104989960 -551159232 -43026612 282750304
          -139310304 160623904 91887680 -83706832 96891224 -23309314
          -42718564 -85530720 -104478696 49547036 51989716 240966816
          -7110924 -471153824 -93234480 -125833736 -385329056 204028384
          -115439600 74158328 -69846008 -46820316 -83605448 122264928
          -64327548 -488940480 221724672 316947584 -174274256 -520988768
          47152636 92523312 -599196672 301050400 -220956304 233648016
          63258396 -156468976 -15910721 -120543848 69669640 -660765888
          157131216 -29916172 -51881984 51725176 -9344181 261148704
          -624983616 -60475616 -98283112 183116352 216286928 -164449360
          -37128436 -211399872 3082419 -246940224 16379422 -530958144
          47664352 -366528896 70173736 258133552 25296164 79938584
          -120334712 40134896 20547614 -28699328 -67653360 -413744704
          48509364 519269920 -260583936 -543760.0625 -126362520 -123261560
          -52286144 -19337046 -335399296 114208976 54694396 -49563236
          -164446128 -90371224 120393960 -258501232 -136336048 459407456
          -366635968 98324440 -204852336 -411003360 53208904 27811610
          -147078352 228774016 -56625028 -93345912 -135540320 -241748.32812
          -32541304 63482248 -49092020 -105941632 4628594.5 10609148
          -125229496 -281035616 51781880 -68808192 123531608 184013632
          -86928952 -207051248 -48116988 -187914224 51992420 186551872
          -78184032 -7301871 -106730392 -361255840 130629960 -262466240
          129490520 -151273856 -184013632 240320752 -180010096 106655992
          -35203484 -331561952 39607776 156000128 -132329048 256565520
          -248149632 -103313096 -126294696 143045648 214610688 -174084336
          -391724192 -20908358 -316488864 215691712 -136333024 -322375328
          19986224 -460149920 72169376 215588688 -183083648 436568896
          -323140928 164191152 39693316 -200485488 -468811616 -71660112
          -163312528 -4103099 29554128 -20823022 -86768848 -570696832
          152520880 181341808 -108725840 -153235856 -32214248 -659116608
          24188660 492425056 -1851530.75 153008464 -75744280 -57693436
          -258820384 56112456 -261351920 -386035808 147687392 80114808
          104046328 58715404 18846210 -659559744 -601312.9375 319261856
          174433632 32802854 -198169168 -215142256 -272503552 88867784
          -51125472 -638982784 67269408 25602524 52782932 84329664
          19289342 -378681408 -161833296 -190693536 -66160776 155036512
          -37822656 -68423792 10396643 223921136 198487248 -731889088
          -155073232 694329408 -310306816 167261408 -75223312 470568736
          -32224584 -920959360 -301590432 -259029328 -125164424 93551568
          65224928 222542672 142641152 -216149888 -113278080 387199200
          -268973184 -60189136 -52081308 80170960 42719420 -488167328
          62538272 -40441024 -85648888 34590112 13731891 72096256
          -80104280 7365898 -10425034 95958520 -100869360 -393536160
          62923012 -431577440 -143693504 124826496 20697322 153757248
          63598168 -60910104 -102814576 -287696128 129478008 -179105200
          -23817416 -331010208 163766048 20271042 -222818400 145725104
          -592959168 523603552 -530407200 14504369 -95067352 -101426264
          192165504 -319104544 97200864 77253392 -489800864 32031096
          -301131232 102109824 111407592 -139628240 -206743536 -41172160
          839288000 -285495040 -1418707072 483494464 257058976 -402395136
          -76122352 -102310728 147442896 230372896 -349721408 -876645440
          -142432480 1107192576 56232464 -1367651328 -223290832 108330256
          315046848 -66312760 -300620320 541321920 -189618112 -12655253
          -224551824 -226793520 -388625024 -249448896 -21866990 -311248608
          -493146688 600676224 107105728 -428522432 430015520 -435466976
          44318072 464376768 -260869040 -330433824 -338406816 -2977389
          -210092064 -790502208 706260480 248552992 0 0
          0 0 0 0 0 0
          0 0 0 0 0
        </DataArray>
        <DataArray type="Float32" Name="uz" format="ascii" RangeMin="-681224576" RangeMax="502319296">
          -90065536 -555713984 -441828128 122468360 -189471632 24375666
          -467141024 9250348 -135013680 50407720 185582112 -165900720
          -24695890 92285944 -27251688 42063788 10535771 -214394400
          186786176 -359607648 280407552 17096574 -132690336 -10451685
          25390114 -9757849 -41771684 -108508160 120085264 -75278952
          28577552 -93848896 -13344349 -202435264 -350976736 25312180
          12185198 -234735648 -25560736 125129712 -93821968 -59844760
          133089664 51960192 -41586552 -318986976 -139747776 28521314
          -195992704 -128061912 -40828924 -70677880 -60101124 -5625374
          68941040 -84422848 21839058 -104370656 -136301408 -61311256
          98545920 -94515936 -71925768 -2059539.375 -209102064 -61656916
          114618960 -45395272 -217284928 -92849024 -85045680 22275982
          -80796856 -8231417 -118531928 -97152616 86255224 -125405496
          -266178704 50543988 -102073312 1969169.625 -222262368 -104225864
          22681648 96839944 -39301836 -89582136 -86341680 -64346104
          -9340947 -59258288 -45841996 -43892400 -276107392 16758230
          -106140488 8778829 -20869474 -80584648 96270672 114205216
          -68050816 -118663952 -129037616 -68984704 -21373480 23041218
          -209638560 6069427.5 -284431584 12565842 -102559008 -87897568
          -204090816 -69343392 -79029992 195454112 54093444 -93952656
          -98783632 -80776344 -39234904 -22798874 -89503920 -56686632
          -91376392 68441504 85908984 -103822576 -146240352 -76745216
          -344676096 185083984 45542460 -11272127 -163160144 -63364620
          7310519.5 1611074.25 8586057 -11106578 -273539232 69420344
          152198288 -85118280 -146194464 -118619768 -216585968 74960656
          -47143420 -7404653 -104017608 -102723248 -73504472 25518494
          30066428 -83618552 -236497520 -66792452 -170935040 11166048
          -84891392 -76900016 80237944 -178186480 -59253640 40411616
          -51457920 26556894 -25087334 -70737752 -93957640 -89716072
          -43366272 -29458384 40152376 8887118 -299764608 -83104832
          17917494 -216197696 43994392 -90362216 43786376 -37883936
          12440154 -111914840 83699768 -76765448 -15097194 26664856
          118106504 -9021984 -306643008 -117560976 -295542688 65353584
          -9067325 -15670190 -96956448 -102289680 -45325700 -59006800
          -104440536 8449507 -170367760 63289240 -65047492 -29461234
          -1767022.25 -28987556 -242792432 -55233680 -104140072 -115739280
          20446258 -147454272 -30970696 -28242526 120180400 -133053928
          12197508 -17460798 11500127 -109358824 153980400 -78629928
          -314348256 -146655664 -95588736 -92394216 62879712 -126088096
          -113475224 -51518776 41049896 -87481912 -152884416 6958047
          50286884 -67257824 58929472 -55516248 -330209056 48983748
          -128444824 -113893632 15548027 -31083692 -120614528 71963488
          -223982512 30019912 -266212640 -50361964 71946064 -56354028
          -108714144 -116162704 97743312 -167775440 -4401781.5 -84223992
          -53926236 -29314196 -17798790 30939924 -131448136 -50372944
          -323746368 -39086740 51564124 -81735856 -300826784 -31781230
          40843028 -203834832 81345344 -62330332 32385236 55073548
          -102999320 2088442.25 34098856 -128555264 -350080960 76134848
          -132572896 -96313912 -44363536 28098448 61999860 -191144496
          -22996720 -57715644 -1698316.375 18588378 -23250142 -27414274
          -21385684 -146982800 -314952000 38301036 -263799168 -58770432
          -175377584 33210746 104242024 65397228 -120525608 -96931952
          -52361072 -154651760 47454620 -75079168 -109283360 -22259836
          11054872 -71578496 -37700992 21001570 -239642432 -14296741
          -136539648 -82256976 -41198784 -61371504 -31832742 -41945228
          17527230 -12490478 -7000982 -23646774 -67578560 -31520112
          -71903752 -25253790 -102297176 -11796681 -76454384 -80576448
          -2053169.5 -46798216 -10716772 20427212 -5509565 50126460
          -681224576 258493936 31761422 -62108676 -245216320 7081638
          195418160 4091908.25 163466656 -372024896 -26456018 18256590
          8314050 -627255.375 -278591200 -92161216 -8655543 -140439888
          198136256 -373727552 97065056 -12969678 -22273914 -213493584
          2216359.5 -42941432 -273391264 8113283 -117732840 -128600744
          -3894588 -69206656 -221453408 105275616 -282093280 5542199.5
          -10896100 -127906352 -33014118 -22153206 16248135 105189328
          15026658 -90474456 -74711528 -64067704 2192733 -51648628
          -102986272 -53527232 -119727936 -49672700 39476864 3936575.5
          -21844726 -195664624 -15650738 30602726 -22086710 -65853368
          -27494844 90145816 -124120920 -192942688 16152031 -87866568
          -123240040 -11821475 20736438 -28229574 -75320096 -69477712
          17272730 -156326512 -35563556 -117759624 -68332896 -46972400
          -70068128 -59859512 -62223372 -23726534 6302012 -44770460
          -46872512 -125507912 44352764 -34717996 -46599380 -200900256
          -44707216 -85186072 -43484944 -113126000 -18793546 10800046
          -168330768 -29901314 -5346695.5 27991432 -113284416 -25279704
          -95847088 -109957848 -14736101 -105054616 22839040 -280976480
          46294764 -262747424 -39478376 130188568 -89861696 -10570680
          -3745013.75 1412580.25 -105874888 -32964540 -123428144 -278899008
          36750420 88249328 -94309848 -249098144 -35471320 -296765984
          -35149240 168150192 -166816576 92983936 7753800.5 5147922.5
          -22634832 39275836 -65374712 -163557184 -30358362 -35694516
          -92727088 -104205384 -94991464 -36427480 -88953576 121874368
          3446874.5 -42583784 -8371144 -90859824 -125998144 -86036936
          -24349408 -120412328 -50770876 -244927744 19371888 -67048776
          -53882084 31742736 -37560508 25802990 -96515888 -112166416
          -85342248 -69726864 -73679192 -33789984 -78079144 -235692512
          -24306240 -47725504 -7632143 -53897668 -96813128 -192302432
          23908218 86073456 -265077616 35425664 -71630904 22041812
          -53145336 -44411148 -76564728 71312808 -6220972.5 -139150176
          23948058 -242228240 -78325680 42300000 77654104 -231746432
          69972456 -10598500 -96964848 -96753816 -4463328.5 -110563424
          -111148176 65463240 11285170 -38373064 23771454 -68985600
          -75626200 -84132288 6383832.5 -295387488 -6642068 -21902496
          -24185838 -39687448 -64072064 -115393400 -50891016 -110064768
          43029168 -161808304 10560978 -114147960 -42308752 -101916856
          9298023 -101979496 -102284696 38819136 -32866678 20399178
          8499432 -24928594 16543804 -155432960 -51684760 -154089856
          -19000734 -27467090 -50100836 -188450752 43997592 124760576
          -226054688 14805627 -105815776 33404164 -11938693 -17720194
          -16591775 21698306 -68518176 -208290192 52189164 -53547544
          -71772904 52272100 10567047 -121546408 -112315136 -48580864
          -37338232 -46643156 -22830512 -86353984 -15058811 102656304
          -76789616 -334689632 104071808 -241811920 -765310.125 -38571424
          15981173 -133569672 109205032 -96807304 -75970824 -56245148
          -102393424 -103566656 -75643272 -141079872 -86236328 67475840
          25553776 -189035360 9520259 51122596 9469267 -271927648
          -18009122 -103187968 -83321856 -171073.625 -98454872 13710586
          -54607564 56251744 -116115216 85558984 -108760616 47261452
          -21164746 -149958448 -124666680 -181801472 -79636600 -46044408
          -29976524 48911008 -107881784 -20048808 9982751 -194624592
          -77917776 25526536 -123430496 212866192 -76148432 -68161088
          -149464368 -113968688 -286913088 -27302654 -79230848 105546400
          -60887844 23656556 13100609 -33077512 -20621268 -37635168
          -41148748 103457224 -88428560 15534950 -47960420 -33788372
          -168137376 -29934162 -50235128 14513201 -11735272 -39904280
          -16692306 -221058432 137138400 -157428320 -123124520 -349602976
          50512156 -248169408 -39450612 241787488 -11970320 -590108.125
          -6470602.5 -39984964 -26888080 -109938744 -264029888 -69654096
          -108415272 502319296 -417999200 182543840 69434416 28412086
          -185070240 -84711960 68898232 22693966 -103127160 -303448832
          -192855264 300635808 -303046432 -365311200 290064192 -40813688
          -44430644 -139033936 4348629 -34712140 160135264 -51721876
          -545355712 -124443208 120697448 -44206420 -140557040 53534076
          -137361920 -2460771.25 -68175760 98152208 -209995776 -241645472
          -73349408 -14200462 -101659416 -398515296 -36728688 -19195100
          78479944 -185370304 -20623390 -103786280 13537171 -210110848
          -150836016 -66292712 -52362840 -82938112 -166470112 -135863840
          -160924048 184266896 -151047184 -41580360 118222024 -186679616
          -101952256 90045480 -57132176 -331004448 -40430996 -88687424
          -193193728 -123686264 216343040 -72048744 0 0
          0 0 0 0 0 0
          0 0 0 0 0
        </DataArray>
      </PointData>
      <CellData>
      </CellData>
      <Points>
        <DataArray type="Float32" Name="Points" NumberOfComponents="3" format="ascii" RangeMin="0.46622588233" RangeMax="7.6521325117">
          -0.19021129608 -0.061803411692 -0.86620301008 -0.17591033876 0.034764420241 -0.76195138693
          -0.16671703756 -0.091014400125 -0.72213083506 0 -0.076892651618 -0.88645333052
          0.19021129608 -0.061803411692 -0.86620301008 0.16671703756 -0.091014400125 -0.72213083506
          0.17591033876 0.034764420241 -0.76195138693 -0.19021129608 0.061803411692 -0.86620301008
          -0.18159212172 0.19999980927 -0.78656190634 -0.1175570786 0.16180337965 -0.84761428833
          0 0.076892651618 -0.88645333052 0.18159212172 0.19999980927 -0.78656190634
          0.19021131098 0.061803396791 -0.86620301008 0.1175570488 0.16180339456 -0.84761428833
          -0.18159212172 -0.19999980927 -0.78656190634 -0.1175570786 -0.16180337965 -0.84761428833
          0.18159212172 -0.19999980927 -0.78656190634 0.11755704135 -0.16180340946 -0.84761428833
          -0.1518419683 0.11249999702 -0.65769982338 0 0.20000000298 -0.79257327318
          0.1518419683 0.11249999702 -0.65769982338 -0.1518419683 0.22499999404 -0.65769982338
          0.1518419683 0.22499999404 -0.65769982338 0.1518419683 -0.22499999404 -0.65769982338
          0 -0.20000000298 -0.79257327318 -0.1518419683 -0.22499999404 -0.65769982338
          0 -7.3834306913e-17 -0.89999997616 0.88898772001 -0.069528840482 0.40000000596
          0.78199386597 0.034764420241 0.40000000596 0.88898772001 0.069528840482 0.40000000596