<VTKFile type="UnstructuredGrid" version="1.0" byte_order="LittleEndian" header_type="UInt64">
  <UnstructuredGrid>
    <Piece NumberOfPoints="791" NumberOfCells="973">
      <PointData>
        <DataArray type="Float32" Name="ux" format="ascii" RangeMin="-1.9103326797" RangeMax="1.5603039265">
          -0.40355184674 0.87877249718 0.19988429546 -0.33605203032 -0.057610467076 0.31079265475
          0.60982054472 -0.37956592441 -0.089330203831 0.29887241125 0.44106844068 0.78349530697
          0.26465880871 -0.24403969944 0.80520439148 -0.68323677778 0.057403668761 -0.1325597316
          -0.44232413173 0.059261009097 1.0322185755 -1.0112371445 0.029920728877 -0.11737878621
          0.13986441493 -0.40133297443 0.88407361507 -0.35167333484 -0.34879869223 -0.54745471478
          -1.1091841459 -0.73329097033 0.70901447535 0.38518923521 -0.66041779518 -0.70648097992
          -1.4000656605 0.36403128505 0.11201287061 0.72789716721 0.5386530757 -0.73049122095
          -0.40815919638 0.19604742527 0.12496023625 -0.058957472444 0.085738942027 -1.4996324778
          0.34109580517 -0.72163379192 -0.91556507349 0.9300287962 0.97999542952 1.1014367342
          -1.0127184391 -0.19013647735 0.2810382247 1.1308562756 -0.2369325459 0.73039090633
          0.21306569874 -0.18333673477 -0.35503137112 -0.99442744255 -0.45974722505 0.48465636373
          -0.56684952974 -0.56157320738 -0.60558718443 0.088430978358 0.35798671842 -1.2388247252
          -0.095354773104 0.35620680451 -0.20750938356 1.2355417013 0.29349252582 -0.22588482499
          0.03124367632 0.53660064936 0.32276019454 0.86987119913 0.77794194221 -0.36836227775
          0.1694675386 -0.6207383275 0.18032243848 -1.029489994 -0.32940489054 1.1901754141
          0.22529418766 -0.50309622288 -0.029076209292 0.016856571659 0.64639300108 -0.39728504419
          -0.22451779246 0.57096999884 0.91845589876 0.5412299633 -0.37603315711 -0.55325514078
          0.50083202124 0.27529007196 0.88912755251 -0.59838026762 1.1818828583 0.96141946316
          0.0084761753678 1.1682738066 0.24301961064 0.51021045446 0.091313295066 -0.72102493048
          -1.209269166 -0.10204040259 0.96377426386 0.7147616744 0.055643666536 0.73943245411
          -0.51661777496 -0.60848587751 0.78048753738 -0.14354750514 -0.51515132189 0.19548603892
          0.74445527792 0.9939994216 -0.28738233447 -0.31187680364 -0.63841897249 -0.88728356361
          -0.86025714874 0.014380549081 -0.54135978222 -0.046875137836 0.23498103023 0.60207843781
          0.26712802052 -0.83099776506 0.48561990261 -0.32666447759 -0.62918335199 -0.21074151993
          0.034155510366 0.99900817871 0.28578409553 0.70481228828 0.029023302719 0.47456806898
          -0.20425273478 0.18818439543 0.81284368038 0.3544537425 0.17466460168 0.36252245307
          -0.0046490379609 -0.4009860754 0.088750720024 1.145203948 0.097223043442 0.26608845592
          -0.18481466174 0.88168650866 0.86227309704 0.67862808704 0.37984237075 0.20702132583
          0.10124646872 0.2780161798 -0.2766482532 0.92063611746 0.40687778592 -0.96507811546
          0.20102337003 0.25573053956 -1.0537018776 0.89543294907 0.19857951999 -0.054453428835
          0.63920581341 -0.37843924761 0.094732686877 -0.11568350345 -0.010947828181 0.062339410186
          -1.0875592232 -0.233978495 -0.65068930387 -0.059956289828 0.42482104897 0.47548016906
          0.11682821065 0.42087054253 0.054888408631 -0.49770802259 -1.0261743069 -0.29757744074
          -1.5867775679 -0.95186084509 -0.047782920301 -0.4681481719 0.057779051363 0.14478698373
          0.25489130616 -0.93614089489 0.9784013629 -0.61985588074 0.21992765367 -0.052069760859
          -0.50365591049 -0.31526470184 -0.53493177891 -0.23055794835 -0.44009104371 -0.11455561221
          0.079338893294 0.41799429059 0.92399913073 0.3402146697 0.28050303459 -0.30088075995
          -0.13695521653 0.58793658018 0.2583129406 -0.076092675328 0.066378675401 0.027327770367
          1.0401138067 0.94549810886 0.53248608112 -0.69997179508 0.13362054527 -0.12756387889
          0.48485690355 0.64008516073 -1.1627594233 -0.93115246296 -0.12967142463 -0.40991124511
          0.68518429995 0.12688753009 0.82693046331 0.033832125366 0.11153151095 -0.29342851043
          1.0072845221 -0.072347521782 -0.6348913908 0.52226245403 -0.56496936083 -0.17472524941
          -0.099732249975 -0.66371881962 0.23737928271 -0.97494596243 0.22193454206 -0.093173205853
          -0.18835519254 -0.36690881848 -0.2188398391 0.15356962383 -0.34499523044 0.93218553066
          -0.12789848447 0.54611980915 0.28563967347 -0.57996308804 -0.42643043399 0.30667617917
          -1.1566405296 -0.037731707096 0.2540628016 0.10829044133 -0.73513823748 0.90677040815
          -0.51980024576 -0.15580555797 0.47520932555 -0.23278535903 -0.14888502657 -0.1794578135
          -0.72980028391 0.049573611468 -0.11423998326 -0.27083799243 0.28758704662 -0.028563452885
          -0.46501865983 -0.19448663294 -0.14785555005 0.20021420717 -0.71494168043 -0.19174434245
          0.030105631799 1.3250945807 -0.15008874238 0.61029517651 0.28711974621 -0.33246484399
          0.5281188488 -0.041388474405 -1.3465435505 0.89709222317 0.3837761879 -0.31334295869
          0.10985815525 -0.30663883686 0.37334308028 -0.076792575419 0.43858379126 -0.80453878641
          0.63955330849 0.061175704002 -0.0822526142 0.5457212925 0.071551911533 0.29428392649
          -0.44293111563 0.16218800843 -0.57021337748 -0.96059381962 0.07520082593 -0.88492429256
          -0.048241142184 -0.068388365209 0.25677555799 0.95189338923 -0.14122720063 -0.59474945068
          0.50446152687 -0.52755361795 -0.19866408408 0.98522782326 0.88357424736 -0.085361227393
          -0.95533359051 -0.1203802079 -0.84251832962 0.39730915427 -0.038140859455 0.90443640947
          -0.797721982 -0.058206826448 0.73198080063 0.62223249674 0.82492238283 0.030278515071
          0.34707304835 -0.33254793286 0.45415630937 -0.46270537376 0.93860286474 0.26957553625
          0.30671942234 -0.58815145493 0.45641204715 0.11836565286 -0.87284201384 -0.12154605985
          0.29314255714 0.2267126143 0.010846445337 -0.44312873483 0.016467928886 0.40818011761
          0.17733074725 0.43196508288 -0.64982455969 0.46848556399 0.090196721256 0.22821339965
          -0.53652584553 0.46302047372 -0.26922261715 1.4050537348 -0.49497121572 -0.52986395359
          0.60785830021 -0.23342388868 0.25221419334 -0.35268396139 -0.37713623047 1.0176837444
          0.11485129595 -0.024063481018 0.26579040289 -0.45877954364 0.22940559685 -0.48953667283
          -0.6301254034 0.089314594865 -0.061952445656 -0.44851645827 0.075696624815 -0.092939510942
          -0.61004477739 -0.088284224272 0.75068604946 -0.16305217147 0.67980444431 0.77869051695
          -0.052269816399 1.0769361258 0.60889321566 -1.0285997391 -0.50746750832 0.80567324162
          -0.305439502 -0.31225299835 0.68885439634 0.62873703241 -0.31376975775 0.79966545105
          -0.56766235828 -1.063965559 1.5603039265 -0.05452946201 -0.59710001945 0.50138705969
          -0.73570507765 -0.56232321262 -0.31350809336 -1.0920939445 -0.28696256876 0.68026572466
          0.27258527279 -0.67358094454 0.14293579757 -0.23962669075 0.34659576416 -0.672318995
          0.63782262802 -0.14760781825 -0.47944995761 0.035172808915 1.4236555099 1.0468232632
          -0.38437777758 -0.68503236771 0.22602342069 -0.39405837655 -0.2502579689 -0.77579021454
          0.32802662253 -0.76724481583 -0.73551529646 0.0054422817193 0.11921790242 -0.21336199343
          0.32493594289 0.29372522235 0.21984788775 -0.90150439739 -1.0953969955 0.22466662526
          0.88802522421 0.51404613256 -0.074789643288 -0.21814611554 -1.3995486498 -0.83741503954
          0.26521712542 0.18481278419 -0.63030445576 0.76691991091 -0.6768206954 -1.0764740705
          -0.23446525633 -0.10147184879 -0.30654808879 0.51805841923 0.13541325927 0.50343030691
          1.4443893433 -0.79235261679 0.83067083359 0.042329851538 -0.86101794243 0.4666236937
          0.82144171 0.57018691301 0.44375362992 -0.47165614367 -1.1010853052 0.57992297411
          -0.15284013748 -0.58123934269 0.68410819769 0.36046543717 0.52389758825 -1.0185511112
          -0.54506713152 0.28819966316 1.0622358322 1.2087688446 -0.34639137983 0.6763638258
          -0.032592177391 0.049601823092 0.13974271715 0.080412559211 -0.65001249313 0.023300318047
          -1.9103326797 -0.44935965538 -0.14637371898 0.82693463564 -1.2578682899 0.45361316204
          -0.93399250507 -0.28264057636 -0.16300207376 -0.42759373784 -0.62010371685 0.83785378933
          -1.3443801403 0.25477296114 -0.039229758084 -0.30573138595 -1.0134835243 -0.16861601174
          -0.47003343701 -1.5348649025 -0.25053930283 0.37918949127 -0.22040635347 0.77872812748
          -1.6212154627 0.097815699875 0.026377381757 -0.40064373612 0.9345625639 -0.2450979352
          -0.54786074162 -0.64747625589 -0.70053195953 0.11207528412 -0.50597661734 0.68568742275
          0.38236087561 -0.22905878723 0.27363964915 0.95788288116 0.61133438349 -0.31154322624
          0.34326589108 0.53987109661 -0.35102084279 0.67951732874 -0.94541734457 -0.042851809412
          -0.40178763866 0.63755244017 -0.25509250164 1.4779962301 -0.88734179735 -0.30768287182
          -0.69226700068 -0.11704713106 1.0645910501 0.1501250118 -0.13893522322 0.34853413701
          -0.10049048066 1.0282070637 -0.200916484 0.75472968817 -0.14816434681 0.58220350742
          0.37805241346 -1.204644084 0.37969484925 0.49711552262 -0.96189814806 0.44211062789
          -0.30456233025 0.46585062146 0.80063080788 -0.69812005758 0.64292025566 0.40418893099
          0.62161922455 0.57084929943 -0.92554014921 -0.32665753365 -0.94198018312 0.031702622771
          -0.26657834649 0.040811736137 -0.88970375061 0.89116483927 -0.3239659667 0.032321967185
          0.94727051258 0.20058140159 -0.79152232409 -0.0025253703352 1.1489770412 0.74928361177
          -0.88817071915 -0.69476747513 0.42917874455 0.47239890695 -0.41780018806 0.38439980149
          0.90028297901 -0.4972679615 -0.72411614656 -0.53495556116 -0.81801098585 -0.0019583976828
          -0.61041545868 -1.0837585926 -0.21879610419 0.3682423532 0.6179959774 0.84614777565
          -1.1340737343 -0.70258438587 0.38313493133 0.038030698895 -0.78161162138 -0.43760532141
          0.14406496286 -0.75036001205 -0.96082401276 0.83108794689 0.24859693646 -0.26362937689
          -0.72911399603 -0.076072663069 0.19427460432 -0.64269381762 0.56028568745 -0.33988583088
          0.64223921299 0.96728157997 0.6897200942 -0.25677630305 -0.87710154057 0.067462958395
          0.23618081212 0.90961456299 -0.092898994684 0.36869934201 -0.56908363104 0.66994214058
          0.47107979655 -0.67558008432 0.88853931427 -0.71009534597 -0.41130074859 0.46551141143
          -0.020789146423 0.40165039897 0.414483428 -0.46677082777 -0.66121351719 0.096055343747
          0.81139498949 0.18096986413 -0.53218889236 -0.26789700985 0.71466851234 0.071679443121
          0.2316249907 -0.71858859062 0.78774803877 -0.59915667772 0.3062851429 0.22595761716
          -0.61179238558 0.43327504396 0.24525587261 -0.1654484719 -0.3851878643 -0.044359013438
          0.45507070422 -0.053068224341 0.31042686105 0.017228633165 -0.7689204216 0.29702311754
          -0.20420123637 -1.0109374523 0.17132619023 -0.0016670920886 -0.26986601949 0.66081267595
          -0.87315410376 0.047661595047 1.006259203 0.34659087658 0.82357609272 -0.35744702816
          0.03418495506 0.26225814223 -0.27043554187 -0.70563185215 0.52535670996 -0.80399847031
          -0.40968763828 0.47724753618 1.4092290401 -1.0815412998 -0.28500193357 -0.019351491705
          -0.146218732 -1.0937588215 -0.44344779849 -0.7696569562 0.44555667043 -0.31075340509
          -1.3196940422 0.45413333178 -0.1669472903 0.67735344172 -0.28162807226 0.91218090057
          0.13135871291 0.42290115356 -0.55916237831 0.89684897661 -0.87345314026 -0.59263843298
          0.4956843555 0.90052235126 -0.049341354519 1.526432395 -0.25997614861 0.40267896652
          0.74464070797 0.67805480957 -0.52184098959 0.019068583846 0.079724229872 -0.3931851685
          1.1531069279 0.095651552081 -0.042398124933 -0.71064579487 -0.31231161952 -0.29481336474
          0.63681447506 1.3599931002 -0.12435502559 -0.055813889951 0.7396337986 -0.5168402195
          0.40702229738 0.23065975308 -0.61547452211 0.10506086051 -0.12388561666 -0.021881563589
          0.34714233875 0.57982945442 -0.084265753627 -0.030859353021 0.44608193636 -0.72528129816
          -0.36011624336 -0.36724844575 -1.0034974813 -0.24698193371 1.5247762203 -0.98276650906
          0.4762263 -1.0706175566 0.080116935074 -0.23709508777 0.84672647715 0.83013170958
          0.088726617396 0.81847631931 0.34191721678 -1.7280300856 0 0
          0 0 0 0 0 0
          0 0 0 0 0
        </DataArray>
        <DataArray type="Float32" Name="uy" format="ascii" RangeMin="-1.7452119589" RangeMax="1.5921574831">
          -0.33402761817 0.07803042978 0.020430201665 0.13105085492 0.51567596197 -0.32366093993
          0.37743240595 -0.7646176219 0.12748993933 0.15076234937 0.28758314252 0.047556497157
          -0.62117862701 0.99172842503 -0.1122918725 0.090458646417 1.0737740993 -0.65369832516
          -0.20281161368 -0.20390152931 -0.78845727444 0.29311668873 0.13905842602 -0.067730106413
          -0.68393748999 -0.038286883384 -0.034334748983 -0.478099823 -0.25141775608 1.0428202152
          0.21918834746 -0.64065170288 0.15252535045 0.1314240396 -0.86607569456 -0.8377199173
          -0.38999158144 -1.3458563089 0.18108695745 -0.4719453454 -0.59960746765 0.00063997850521
          0.56894207001 0.4275842011 -0.11881409585 -0.38342806697 0.53310531378 0.45566672087
          -0.30756235123 0.1426897943 -0.058956421912 0.19891604781 -0.095634505153 0.53538346291
          0.20276163518 -0.1277565062 -0.29588666558 -0.20472817123 0.01515081618 -0.23794263601
          0.39894965291 -0.16001462936 -0.45972761512 0.15877564251 -0.93611121178 -0.43932875991
          0.57615989447 -0.35812246799 -0.77131891251 0.42475417256 0.57519596815 0.1800198257
          -0.563785851 0.94375032187 -0.54286634922 0.24108630419 -0.73193818331 -0.25621065497
          0.58586186171 -0.42999967933 0.79879462719 -0.64407151937 0.0089360810816 -0.89465326071
          0.49978968501 0.62241840363 -0.22583378851 -0.093591995537 -0.22042377293 -0.82828646898
          0.53885936737 -1.2597917318 0.82764166594 0.48828741908 1.108992815 -0.77399861813
          0.27391248941 0.60203945637 0.22768123448 0.30684223771 0.15876932442 0.029634071514
          -0.32294154167 -0.21937783062 0.29467627406 -0.12451668084 0.4317971468 -0.0080868182704
          1.520211935 -1.4859527349 -0.38289955258 0.87447661161 -0.40062367916 0.29816460609
          -0.2752558887 -1.0228732824 0.66443645954 0.30014210939 0.046192269772 -0.021065965295
          1.0026834011 -0.14509375393 0.11773853004 0.75066298246 0.34998825192 -0.10548774153
          0.042880959809 -0.031746923923 -0.2935026288 0.45020839572 0.1322363317 -0.88928848505
          0.47889593244 0.66927266121 -0.54533982277 -0.29271182418 0.49294307828 -0.66049265862
          0.000855966995 -0.19649720192 0.1901294142 -0.45595285296 -0.50390827656 -0.50234299898
          -0.51663661003 -0.84121471643 -0.61732250452 0.66881686449 0.68545234203 0.065254345536
          0.5806543231 0.84346401691 -0.012228686363 -0.99593287706 -0.45214170218 -0.55062162876
          0.92397332191 0.16925412416 0.3375672996 -0.016606936231 -0.24882520735 0.28535893559
          -0.48076739907 0.5621676445 0.16072525084 -0.17334260046 0.11348152161 1.574431777
          -0.25278180838 0.76669281721 -0.10694754124 1.2262845039 -0.23127603531 -1.3620266914
          0.57812458277 -0.68688458204 -0.79723805189 0.1246047318 0.39933601022 0.22104541957
          0.48238754272 0.26758110523 -0.89980912209 -0.33382120728 0.71349358559 0.54320055246
          -0.60819286108 0.66911929846 0.10345365107 0.10418754816 -1.173730731 -0.82443451881
          0.15367743373 0.08749794215 -0.12984570861 0.23099327087 0.10132674128 0.070577524602
          0.13891942799 0.44278943539 -0.065195776522 -0.15126022696 -0.079505570233 0.14417339861
          0.21023844182 -0.49253386259 -0.027774477378 0.58995699883 -0.70147162676 0.89797580242
          1.013785243 -0.075478196144 -0.67427140474 0.71691179276 -0.48468199372 0.095289155841
          0.45094206929 0.37141546607 -0.18543179333 -0.17021098733 -0.54399526119 0.037158522755
          0.11340033263 -0.017768055201 -0.24638286233 -1.0528775454 0.079637795687 -1.1614180803
          0.13996379077 -0.43585592508 -0.29942214489 0.016232252121 -0.16364577413 -0.43796437979
          -0.23652511835 -1.026006341 0.13975977898 -0.18756964803 -0.65627390146 -0.67051279545
          0.032603923231 0.67852008343 -0.69447642565 -0.4761390686 0.5195313096 -1.1017323732
          0.5679011941 -0.79900377989 0.50591993332 0.81561255455 -1.0853185654 -0.19996324182
          0.1412397325 -0.59172409773 -0.14883853495 -1.2718800306 0.87218469381 0.079845681787
          -0.59258627892 0.73940402269 -0.41680496931 -0.019374106079 -0.13236622512 -0.010413068347
          0.075934790075 -0.17765767872 0.49790498614 0.95539045334 0.15919066966 0.60487252474
          0.52322381735 -0.57694005966 -0.61968618631 -0.37222573161 0.32081922889 -0.62825751305
          0.26580327749 0.89818042517 -0.57242465019 -0.44293761253 -1.4626945257 -0.33772233129
          0.24225865304 -0.49285051227 -0.095022827387 0.54165899754 0.12375837564 0.15595927835
          -0.67433816195 0.7176695466 -0.010156616569 0.58038026094 0.5500022769 0.70866417885
          -1.0858314037 -0.019868304953 0.30604287982 -1.41459167 1.0726456642 1.0432407856
          -1.3586714268 0.086357705295 -0.17039971054 0.22183211148 -0.63104879856 -0.038044199347
          0.088827513158 0.45704227686 0.67897808552 -0.76721268892 0.46727305651 0.22878226638
          -0.81509315968 0.37572154403 0.25059741735 -0.020073462278 -0.39386427402 0.41535824537
          0.13849140704 0.66680657864 0.60151284933 -0.6288190484 -0.0069691967219 0.025463480502
          -0.45219793916 0.50816833973 -0.15471237898 1.1981617212 0.64302521944 -0.48020064831
          0.26525256038 0.16205568612 -0.90371799469 -0.48948359489 0.20639148355 0.037160769105
          0.38073572516 1.1899141073 1.5803024769 -0.73955762386 0.70180344582 -0.9142049551
          -0.80843448639 0.65311962366 0.51694744825 0.10843544453 -0.47100642323 0.013961547054
          0.3582239449 -0.19100886583 -0.1789496243 0.41871720552 0.060524739325 0.13599812984
          0.59749627113 -0.66127246618 -0.096990376711 -0.43369826674 0.11405112594 0.3470570147
          -0.7787244916 -0.013466086239 -0.14250819385 -0.41555678844 -0.3853930831 -0.41114208102
          0.17650847137 0.13631600142 -0.12142676115 -0.5802898407 0.36942109466 -0.46633532643
          1.1967355013 0.34923192859 -0.44790551066 0.0732396245 -0.46728077531 0.68426132202
          0.23377752304 0.41599816084 0.28626585007 0.14043574035 -0.25576725602 0.02811303176
          -0.96266597509 -0.043056204915 0.29926249385 -0.25518482924 -0.51634198427 0.18551684916
          -0.12450344861 0.086314924061 0.12652519345 -0.73987483978 -0.10443662852 -0.38801836967
          -0.50549197197 -0.8953564167 0.78845971823 0.16386179626 0.13014781475 0.50594711304
          -0.25009977818 -0.080280266702 -0.093765690923 -0.2129612416 -0.55950307846 0.61944037676
          -0.21229298413 0.50078392029 0.14967080951 0.66442471743 0.82322537899 0.6741476655
          -0.16401830316 -0.63983172178 -1.0934449434 -1.4803732634 0.042286001146 -0.01670448482
          0.15004229546 0.18417286873 -0.5577980876 0.83124351501 -0.89626830816 -0.85969889164
          -0.17177394032 -0.29274371266 0.40091565251 -0.31945517659 0.21635398269 0.036987993866
          -0.27682077885 0.18355810642 0.37877893448 0.26053449512 -0.15394750237 -0.14981509745
          0.032552480698 -0.33041739464 0.26545977592 0.24686400592 0.14992952347 -0.15073864162
          -0.049988731742 0.2897144556 -0.33250081539 -0.070013932884 -0.85199433565 -0.36334842443
          0.054750386626 0.1753526181 0.50211489201 0.16694241762 1.3650584221 1.115255475
          0.64683508873 -0.1468231529 0.22856497765 0.43081709743 -0.4797552824 0.051893368363
          -0.24569754303 0.26392012835 0.40919160843 0.37360712886 -0.45642215014 0.11279812455
          -0.10114679486 0.084491550922 0.36319935322 -0.09793830663 0.72699487209 -1.0580085516
          0.43909189105 0.35158827901 -0.90456479788 0.84297043085 -0.55991202593 -0.66998809576
          0.32299569249 0.02804996632 -0.90280425549 -0.05505291 -0.61367434263 -0.53847175837
          0.00055742403492 -0.059072066098 -0.92467451096 0.075502194464 0.32335409522 -0.19985106587
          -1.6751618385 -0.58929502964 -0.6223577261 0.13104167581 0.3872885108 0.5856384635
          0.64945358038 -0.060087710619 -0.33825317025 0.027653733268 0.089241966605 0.69073426723
          0.23340131342 0.47106465697 0.70713168383 0.28559315205 0.30090999603 0.85371297598
          0.36778020859 0.86981225014 -0.17162273824 0.46395421028 -0.050413470715 0.13314522803
          0.23949159682 0.22312666476 1.24411273 -0.5395347476 0.17428797483 1.021676302
          1.0154998302 -0.10498071462 -0.29788485169 0.13852737844 0.67602998018 0.072301879525
          -1.1701518297 0.29156705737 0.24302652478 -0.33892530203 0.35815706849 0.7077537179
          -1.1167000532 -0.84260129929 -0.38820686936 -0.50849705935 0.09697625041 0.00070720189251
          -0.75990307331 -0.34525808692 0.032297387719 -1.7452119589 -0.30765217543 0.22718924284
          0.2261736393 0.44023692608 0.8374568224 0.55678105354 0.83234888315 0.34448450804
          0.32963272929 0.58384853601 -0.35886439681 1.2905430794 -0.29112380743 0.77909785509
          -0.26723921299 -1.3912848234 -0.4306191802 0.60415065289 1.1331760883 -0.95058143139
          1.0513781309 -0.8140129447 -0.15130645037 -0.66500329971 0.20962409675 -0.31270062923
          -0.11557612568 -0.5450886488 0.074158512056 0.73642987013 0.85189247131 0.16055783629
          -0.033111084253 -0.29659748077 0.17991533875 0.75204139948 -0.61104625463 0.37415534258
          -0.026315728202 0.44879984856 -0.13971804082 0.25026932359 0.45249134302 -0.45658573508
          1.1270707846 0.02822153829 0.082055591047 1.1226613522 -0.9498295784 -0.39220076799
          0.85884320736 -0.046053096652 -0.71471357346 -0.0056145843118 -0.34703561664 -1.0915509462
          0.23346216977 -0.51838678122 0.56817090511 -0.19648614526 -0.7031596899 1.0206116438
          -0.55243545771 -0.11769174039 -0.23582707345 0.88735544682 0.20948790014 -0.034576568753
          0.059459045529 0.19206903875 0.55341959 -0.75028663874 0.82262510061 0.052305348217
          0.17806571722 0.24935792387 -0.94927811623 0.047936934978 -0.40898221731 0.42275682092
          0.18843895197 0.35759100318 0.12942752242 -0.018088471144 -0.07653927058 0.44256281853
          -1.1171207428 0.4861715734 0.91502046585 -1.543976903 0.26965773106 1.1671608686
          0.054393045604 -0.35448464751 0.14722160995 -0.073634810746 -0.74157273769 0.54838758707
          -0.92164772749 0.086343504488 1.0264664888 1.2601163387 -0.32483133674 0.55594724417
          -0.40823733807 -0.27457562089 0.26813924313 -0.21736001968 0.6792511344 -0.78828948736
          -0.51062524319 0.40954205394 -0.5935562849 -0.10077378899 1.5921574831 -0.99863553047
          -0.039032511413 0.50001859665 0.024813825265 1.1393536329 -0.65676492453 -0.69266504049
          0.6108289957 -1.6629645824 -0.49986204505 0.80270373821 -0.33511662483 1.0408564806
          -0.50704354048 -0.75993031263 0.89898508787 -0.78756606579 -0.32758668065 0.12005552649
          0.92894625664 -0.15349470079 -1.0231312513 0.6468411088 -0.71298396587 0.043236471713
          0.81278806925 0.12030463666 0.31427004933 -0.83584320545 0.76314049959 1.2626429796
          0.53906828165 -0.26694065332 0.38554978371 0.9343008399 -0.63146489859 -0.97623932362
          0.31611099839 -0.054267123342 0.11056026816 0.52821725607 -0.72354185581 -0.3073592186
          -0.60745620728 0.49001288414 0.62006860971 -0.62856274843 -0.71711969376 0.53327167034
          0.46166488528 -0.019885193557 0.060737527907 0.37396138906 -0.52966803312 0.83720594645
          -0.15719404817 0.035700712353 -0.5909833312 -0.10149011016 -0.39733919501 -1.3724426031
          0.00354839582 -0.84283292294 -0.31370019913 -0.7405294776 -0.46639081836 0.039696175605
          0.089804977179 -0.0045055029914 0.53739029169 -0.34868228436 0.43634301424 0.10598700494
          -0.4311966002 -1.0634227991 0.059163086116 -0.85645031929 0.0925931409 0.23888896406
          -0.72173565626 0.14025554061 0.2963873744 -0.20929835737 0.13033810258 0.052145890892
          0.26889571548 -0.24903100729 0.63098019361 -1.0931595564 -0.003631498199 -0.58652251959
          0.82969987392 0.052618626505 -0.16888591647 0.40672251582 0.84471827745 0.79858016968
          0.13247705996 1.3723049164 0.81562137604 -0.6514095068 0.020819926634 -0.18670326471
          0.25216934085 -0.035813763738 -0.84569460154 -0.16263701022 -0.55830079317 -0.70417028666
          -0.17422325909 0.93007290363 -0.94113153219 0.044017557055 1.0294104815 -0.93285745382
          1.169172287 0.40078026056 -0.11304891855 -0.24621735513 0 0
          0 0 0 0 0 0
          0 0 0 0 0
        </DataArray>
        <DataArray type="Float32" Name="uz" format="ascii" RangeMin="-2.0570340157" RangeMax="1.5693519115">
          -0.85480231047 -0.035959869623 -0.78717285395 0.46028652787 -0.44534465671 0.65060687065
          -0.67185086012 0.17114080489 -0.42081224918 0.21518526971 0.10573521256 -0.058854244649
          0.426368922 0.65964019299 0.1413500756 0.94493079185 -1.0427664518 -0.092067621648
          -0.51184821129 -0.95473438501 0.58349829912 -0.35230737925 -0.081378161907 -0.57561230659
          0.67441904545 0.49858701229 -0.51115643978 -1.479424119 0.74527853727 0.17185139656
          -0.044482797384 0.61912542582 -1.1541799307 -0.60767704248 -0.74168199301 -0.3931928575
          -0.20823921263 -0.94043135643 0.91690719128 1.1007614136 0.17217293382 -0.67500084639
          0.99845200777 0.61419862509 -0.55890470743 -0.3442928791 0.82618159056 -0.10525014251
          0.50370669365 0.49770319462 -0.50851035118 -0.096405543387 0.050543449819 0.78520643711
          0.50284719467 0.26458597183 -0.098538413644 -0.54540449381 0.058299776167 0.37035855651
          -0.084687307477 -0.14577566087 -0.70662635565 0.32620370388 -0.2860314548 -0.20758204162
          -0.20854268968 -0.75741696358 0.12134736031 0.079225189984 -0.56809031963 1.3766229153
          -0.72842794657 -0.19459117949 -0.89471393824 -0.41254556179 0.225329265 0.36250782013
          0.53936117887 0.298612535 0.067367397249 -0.90648847818 -0.075675643981 0.1929128468
          0.73406845331 -0.55739569664 0.072075463831 0.25247976184 1.4110994339 -0.11858695
          0.15536014736 -0.49684554338 0.58570986986 0.36412274837 0.73097258806 1.1347523928
          -0.8209322691 -0.14245298505 -0.18541947007 0.38254877925 0.92993599176 -0.87757134438
          -0.44146764278 0.060360491276 0.32332387567 -1.1239830256 0.15456998348 0.025399567559
          -0.69331693649 0.0075951125473 -0.42161077261 -0.21055562794 -0.42912390828 -0.4211371243
          0.041390299797 0.18889282644 -0.17349147797 -0.32475566864 0.12258002907 -0.57162117958
          -0.30894622207 -0.31497272849 0.14544266462 0.1566901356 -1.0593022108 -0.13020800054
          -0.6976301074 -0.087573282421 0.19551588595 0.44154688716 -0.25074663758 -0.035915981978
          -1.100479722 -0.84412783384 0.34066566825 0.20970372856 -0.23191261292 0.43041229248
          -0.43889778852 -0.025436999276 0.44604849815 -0.64726054668 -0.46855333447 -0.19447337091
          0.29402887821 0.12578037381 -0.88718104362 -0.2031532228 -0.43874585629 -0.023326840252
          -1.3444551229 0.28978478909 0.52759259939 -0.5853036046 -0.49620378017 -0.90376311541
          0.39910575747 -0.24763068557 -0.019970089197 -0.41554859281 1.1054486036 -0.28913474083
          0.404989779 -0.898671031 1.0997874737 -0.42110225558 0.6097022891 -1.0202252865
          -0.94414764643 -0.022955175489 -0.16571967304 -0.0055424431339 -0.46370959282 0.095654755831
          0.58683466911 -0.70489478111 0.67543661594 0.37440246344 -0.10752337426 0.2235404253
          -0.25855624676 0.13346192241 0.66807186604 0.24850025773 0.40801137686 0.17302121222
          -0.826194942 0.46879348159 0.94047904015 -0.6099550724 0.97756141424 -0.47952535748
          0.2642852962 1.0500146151 -0.59602499008 -0.8931812048 -0.087144948542 -0.41225117445
          -0.57855194807 -0.24847644567 -0.62667661905 0.33559802175 -0.80627995729 -0.10745480657
          -0.095857925713 0.53148972988 -0.93255156279 0.53023290634 0.72953981161 -0.43379470706
          0.049273833632 -1.4362074137 -0.63088536263 -0.49107083678 -1.0627444983 0.30741202831
          0.40071606636 0.48539111018 0.11108624935 0.66717034578 -0.54809510708 0.69630199671
          0.65145397186 0.65503948927 0.0053114308976 0.38450881839 -0.77737998962 0.16315887868
          -0.73326015472 0.43820351362 -0.41866493225 -1.0665667057 0.14535710216 0.75220257044
          1.0604332685 0.33817026019 -0.19439062476 0.68792462349 -0.38636028767 -0.28571563959
          1.0417392254 0.33016362786 0.24198448658 -0.43676039577 -1.0168790817 0.13606144488
          1.1290787458 0.030262518674 0.85364383459 0.32791152596 -0.88337308168 1.0010014772
          -0.13069942594 -0.97002708912 0.069197803736 0.33321642876 0.55920338631 0.91471326351
          0.23394726217 -0.52023029327 -0.07622308284 -0.13563615084 -0.020187031478 -1.4395824671