<VTKFile type="UnstructuredGrid" version="1.0" byte_order="LittleEndian" header_type="UInt64">
  <UnstructuredGrid>
    <Piece NumberOfPoints="791" NumberOfCells="973">
      <PointData>
        <DataArray type="Float32" Name="ux" format="ascii" RangeMin="-1.1142064333" RangeMax="0.37346819043">
          0.089733496308 0.10112088919 0.093938268721 0.087535314262 0.089341774583 0.093848906457
          0.10099199414 0.098262377083 0.11203788221 0.10588548332 0.097979985178 0.11162777245
          0.097855046391 0.10578987002 0.083511561155 0.083555333316 0.083148822188 0.083415403962
          0.11125332117 0.11149647832 0.11142075807 0.11939561367 0.11952602118 0.08713953197
          0.083243682981 0.08701877296 0.092080108821 0.1389619559 0.14672112465 0.14902131259
          0.12742321193 0.13477158546 0.13715870678 0.13758061826 0.12589080632 0.13102123141
          0.11958831549 0.1467435509 0.15786136687 0.15259738266 0.13469566405 0.14534543455
          0.14035458863 0.14918731153 0.13703368604 0.14423447847 0.13228772581 0.13747793436
          0.12574326992 0.16106632352 0.1484977603 0.13870957494 0.12696637213 0.13066770136
          0.11914013326 0.12785711884 0.11641022563 0.15754626691 0.14527389407 0.14440347254
          0.15236835182 0.15472353995 0.14297176898 0.13625977933 0.15239271522 0.16391444206
          0.15845818818 0.15489344299 0.14981073141 0.14281401038 0.16721539199 0.14402753115
          0.13575036824 0.13293842971 0.16353523731 0.14245031774 0.1506203711 0.15299403667
          0.14099758863 0.13413465023 0.15066419542 0.16254745424 0.15689721704 0.15322887897
          0.14800675213 0.14081972837 0.16592356563 0.14202462137 0.13352838159 0.13069953024
          0.16207315028 0.13226167858 0.14060357213 0.14300484955 0.13079999387 0.12382111698
          0.14064912498 0.15276750922 0.14701749384 0.14324343204 0.1379456073 0.1306193918
          0.1562358886 0.13181971014 0.12318509817 0.12033683062 0.15229426324 0.11294473708
          0.12140138447 0.12381044775 0.1115046069 0.10443819314 0.12143336236 0.13365797698
          0.12788020074 0.1240215078 0.11872267723 0.11132682115 0.13719494641 0.11250481755
          0.10382936895 0.10095924139 0.13321773708 0.083553232253 0.09215990454 0.094585843384
          0.082153148949 0.074979700148 0.092190846801 0.10456639528 0.098735824227 0.094782970846
          0.089460968971 0.081999637187 0.10820329934 0.083185106516 0.074464537203 0.071533083916
          0.10417155921 0.043014872819 0.051962789148 0.054485138506 0.041615825146 0.034170139581
          0.051996845752 0.064705722034 0.058754663914 0.05463436991 0.049175061285 0.041506383568
          0.068520061672 0.042754165828 0.033791709691 0.03069560416 0.064414732158 -0.0089486287907
          0.00031171462615 0.0029427323025 -0.010376464576 -0.018102291971 0.00032944825944 0.013346823864
          0.0072839986533 0.0030291602015 -0.0025735115632 -0.010453610681 0.017318980768 -0.0091322185472
          -0.018360408023 -0.021624686196 0.013170707971 -0.072418265045 -0.062879554927 -0.060120787472
          -0.073899127543 -0.081900760531 -0.062887117267 -0.049574181437 -0.05574131012 -0.06012172997
          -0.065850742161 -0.07394361496 -0.04544358328 -0.072532407939 -0.082028076053 -0.085478410125
          -0.049625750631 -0.14700558782 -0.13714614511 -0.13423280418 -0.14857873321 -0.15687039495
          -0.137169227 -0.12346471101 -0.12980215251 -0.13428561389 -0.14024251699 -0.14858734608
          -0.119181104 -0.147061795 -0.15691046417 -0.16055294871 -0.1234196201 -0.23177862167
          -0.2215680778 -0.21848839521 -0.23345699906 -0.24209547043 -0.22160977125 -0.20745828748
          -0.21399065852 -0.21859374642 -0.22480489314 -0.23345288634 -0.20303308964 -0.23179338872
          -0.24205258489 -0.24591495097 -0.20734277368 -0.32571440935 -0.3151986599 -0.31196951866
          -0.32749041915 -0.33643940091 -0.31522032619 -0.30068555474 -0.30740889907 -0.31206458807
          -0.31854689121 -0.32745593786 -0.29615163803 -0.32563972473 -0.33631774783 -0.34038841724
          -0.30052888393 -0.42724883556 -0.41649791598 -0.41311055422 -0.42916488647 -0.43837624788
          -0.41653838754 -0.40163764358 -0.40854853392 -0.41324415803 -0.41997122765 -0.42913460732
          -0.39703422785 -0.42719200253 -0.43824031949 -0.44247683883 -0.40145722032 -0.53443622589
          -0.52358943224 -0.52009081841 -0.53646624088 -0.54581069946 -0.52363854647 -0.50854927301
          -0.51556545496 -0.52023303509 -0.52713549137 -0.5364357233 -0.50393855572 -0.5343811512
          -0.54568529129 -0.55004507303 -0.5083630085 -0.64545089006 -0.63461178541 -0.63105124235
          -0.64757537842 -0.6569930315 -0.63465094566 -0.61950844526 -0.62658530474 -0.63116848469
          -0.6381881237 -0.64754909277 -0.61493819952 -0.64540433884 -0.65687525272 -0.66131049395
          -0.61934489012 -0.75825953484 -0.74734479189 -0.74370330572 -0.76046794653 -0.76999211311
          -0.74736738205 -0.73206162453 -0.73924344778 -0.74378532171 -0.7509726882 -0.76045054197
          -0.72750890255 -0.75822997093 -0.76992225647 -0.77442455292 -0.73194259405 -0.87151265144
          -0.8605145812 -0.85682290792 -0.87379050255 -0.88339722157 -0.86056005955 -0.84505569935
          -0.85234433413 -0.85691565275 -0.86420464516 -0.87379360199 -0.8404750824 -0.87153095007
          -0.88336372375 -0.88790941238 -0.84496498108 -0.98468536139 -0.97360605001 -0.9698972106
          -0.98696559668 -0.99664223194 -0.97362035513 -0.95800358057 -0.96536147594 -0.96994614601
          -0.97731131315 -0.98695856333 -0.95340847969 -0.98467212915 -0.99660384655 -1.0011937618
          -0.95794612169 -1.0976741314 -1.0865702629 -1.0828688145 -1.0999553204 -1.1096463203
          -1.0865460634 -1.0708868504 -1.0782817602 -1.0828436613 -1.0902558565 -1.0999320745
          -1.0663026571 -1.0976356268 -1.1096168756 -1.1142064333 -1.0708765984 0.10381302238
          0.11417239904 0.11371530592 0.10637300462 0.098130576313 0.12000272423 0.13121633232
          0.12262737006 0.12536536157 0.11462760717 0.10995007306 0.13062609732 0.11539871246
          0.10523631424 0.098696000874 0.1239124909 0.11049865931 0.12234460562 0.1177983582
          0.10329726338 0.099639438093 0.1077176407 0.096049018204 0.11965044588 0.12698799372
          0.1293373853 0.13012169302 0.1382278055 0.14083737135 0.11808267236 0.12837707996
          0.11170212924 0.1213394329 0.12707184255 0.13786710799 0.13263227046 0.1383266449
          0.15021152794 0.14444765449 0.12965930998 0.14119552076 0.12454774976 0.13553132117
          0.11796537042 0.12826412916 0.14073866606 0.15337719023 0.11937966198 0.12987633049
          0.11125251651 0.1208864823 0.10842508823 0.11772828549 0.13740439713 0.14969778061
          0.13988797367 0.1487775445 0.15167246759 0.13798472285 0.13026367128 0.14887113869
          0.16181385517 0.15557259321 0.15197840333 0.14581286907 0.13788190484 0.16532790661
          0.13966836035 0.12985961139 0.12635549903 0.16137333214 0.14916372299 0.15882541239
          0.16199982166 0.14709486067 0.13868249953 0.15891169012 0.1729092896 0.16617755592
          0.16226923466 0.15559872985 0.14700073004 0.17675605416 0.14896653593 0.13831496239
          0.13446463645 0.17252013087 0.15843555331 0.16890636086 0.17235012352 0.15620875359
          0.14707027376 0.16896480322 0.1840262562 0.1768156141 0.17257265747 0.16540555656
          0.15613043308 0.18821527064 0.1582763046 0.14678224921 0.14255726337 0.1837002635
          0.16794987023 0.17913004756 0.18281905353 0.16558623314 0.15583562851 0.17918536067
          0.19522589445 0.18756178021 0.18301603198 0.17540057003 0.16551619768 0.19972465932
          0.16780056059 0.15556286275 0.15104949474 0.19493460655 0.17759430408 0.18941181898
          0.19330729544 0.17510567605 0.16481013596 0.18946358562 0.20643344522 0.19832876325
          0.19349697232 0.18546596169 0.17502260208 0.21120648086 0.17742244899 0.16451670229
          0.15975829959 0.2061291039 0.1868211478 0.19928568602 0.20340123773 0.18419128656
          0.17333580554 0.19935318828 0.21725076437 0.20869798958 0.20361828804 0.19512881339
          0.18411591649 0.22227711976 0.18665753305 0.17303647101 0.16801226139 0.2169278115
          0.1957487762 0.20884479582 0.21318353713 0.19296774268 0.18154607713 0.20890933275
          0.2277123332 0.21873576939 0.21340104938 0.20446695387 0.19289365411 0.23299868405
          0.19557605684 0.18123710155 0.17593897879 0.22739446163 0.20505078137 0.21875713766
          0.223308146 0.20212705433 0.19016715884 0.21880616248 0.23849801719 0.2290994525
          0.22350668907 0.21416701376 0.2020393163 0.2440315485 0.20483888686 0.18982999027
          0.18428917229 0.23817160726 0.2147116065 0.22895357013 0.23366163671 0.2117035687
          0.19928576052 0.2290058583 0.24942624569 0.23968829215 0.23387238383 0.22419020534
          0.21160922945 0.25518411398 0.21450698376 0.19893914461 0.19318729639 0.2490914911
          0.22429937124 0.23892535269 0.24376663566 0.22121049464 0.20847041905 0.23897522688
          0.25992438197 0.24994315207 0.24395766854 0.2340323776 0.22112129629 0.26584306359
          0.22409136593 0.20812784135 0.20222243667 0.25960478187 0.23381051421 0.24872167408
          0.25368899107 0.23063597083 0.21761418879 0.24878890812 0.27017483115 0.25997683406
          0.25390771031 0.24374209344 0.23055976629 0.27621039748 0.23363824189 0.21729950607
          0.21124596894 0.26985600591 0.24371357262 0.25894933939 0.26404434443 0.2404602021
          0.22713780403 0.25899460912 0.28080844879 0.27041608095 0.26422324777 0.2538420856
          0.24037574232 0.28697222471 0.24353964627 0.22684630752 0.22062207758 0.28052192926
          0.25470477343 0.27023881674 0.27544510365 0.25138857961 0.23779240251 0.27029520273
          0.29248735309 0.28191184998 0.27561703324 0.26503258944 0.25133672357 0.29877942801
          0.25460144877 0.23758773506 0.2311951071 0.29224523902 0.2671983242 0.28299322724
          0.28829026222 0.26385289431 0.25002756715 0.28303739429 0.30552643538 0.2948346138
          0.28842794895 0.27770468593 0.26381656528 0.31194782257 0.26713636518 0.24988771975
          0.24337252975 0.30535039306 0.28115150332 0.29715207219 0.30251297355 0.27778711915
          0.2637962997 0.29718446732 0.31988623738 0.30912300944 0.30260151625 0.2918035388
          0.27777013183 0.32642120123 0.28111073375 0.26370808482 0.25709885359 0.31977283955
          0.29615950584 0.31236106157 0.31776192784 0.29280030727 0.27865633368 0.31238666177
          0.33529692888 0.32444751263 0.31782400608 0.30695641041 0.29279625416 0.34192737937
          0.29616060853 0.27862221003 0.27193590999 0.33523008227 0.31176066399 0.32804074883
          0.33346271515 0.30839940906 0.29418066144 0.32804864645 0.35104170442 0.34017586708
          0.33348336816 0.32261306047 0.30839696527 0.35774433613 0.31176167727 0.29417800903
          0.28746503592 0.35102754831 0.32740145922 0.34371465445 0.34915110469 0.3240493834
          0.30981037021 0.34371393919 0.36674740911 0.3558729887 0.34915733337 0.33827659488
          0.3240455687 0.37346819043 0.32739806175 0.30980378389 0.3030834496 0.36674234271
          0.10299621522 0.11217882484 0.11253403127 0.10435696691 0.096923440695 0.11650810391
          0.12734439969 0.11970505118 0.12109540403 0.11193118989 0.10692845285 0.12750215828
          0.11125222594 0.10182294995 0.096448659897 0.12177368253 0.10995276272 0.12161046267
          0.11662167311 0.10312995315 0.099232949317 0.10657329112 0.095272742212 0.077459961176
          0.079345710576 0.077237926424 0.072049826384 0.073041848838 0.072387836874 0.069143228233
          0.06587831676 0.065268091857 0.060982897878 0.061074297875 0.059151254594 0.066134795547
          0.052056346089 0.053414784372 0.052029840648 0.04835204035 0.048870440573 0.048500109464
          0.0459831357 0.04363335669 0.043078921735 0.039768408984 0.039996422827 0.038424767554
          0.043892513961 0.030001319945 0.030964529142 0.030040133744 0.027566131204 0.027796849608
          0.027673223987 0.025783926249 0.024241270497 0.023741474375 0.021381417289 0.02165014483
          0.020461598411 0.024501152337 0.013573509641 0.014180196449 0.0136413984 0.012151782401
          0.012163159437 0.012221626006 0.010870208032 0.0099484343082 0.0095365885645 0.0079583814368
          0.0082293730229 0.0073762550019 0.010204398073 0.003772260854 0.0040208538994 0.0037917383015
          0.0032366814557 0.0030365083367 0.0033118077554 0.0023885155097 0.0021340316162 0.0017265727511
          0.00093776313588 0.0011341910576 0.00063323770883 0.0023208460771 2.6964301018e-12 -3.8217727594e-11
          2.8840228816e-12 -5.5245586751e-13 -9.7793669863e-13 6.3726926297e-13 1.5057756203e-13 1.4185923147e-14
          -4.8921006203e-15 0 0 0 1.5050071242e-14
        </DataArray>
        <DataArray type="Float32" Name="uy" format="ascii" RangeMin="-0.99275588989" RangeMax="1.1195021868">
          -0.013771199621 -0.015513779595 -0.016462849453 -0.025845846161 -0.038599316031 -0.039138969034
          -0.039179269224 -0.013613179326 -0.014579276554 -0.018368829042 -0.025707181543 -0.039332535118
          -0.038571737707 -0.033984225243 -0.014955095947 -0.018630655482 -0.039274774492 -0.034169763327
          -0.017647553235 -0.026902999729 -0.039158053696 -0.017494730651 -0.039226222783 -0.0390191935
          -0.027148177847 -0.017627345398 -0.025594335049 -0.12502884865 -0.11738335341 -0.1253143847
          -0.10904518515 -0.10164278001 -0.10922492296 -0.11432640254 -0.098732665181 -0.119102709
          -0.10333860666 -0.10150663555 -0.099524669349 -0.10952076316 -0.086352780461 -0.084484696388
          -0.094045653939 -0.093394741416 -0.078605532646 -0.10948596895 -0.094044737518 -0.10471150279
          -0.08941590786 -0.10965939611 -0.094142645597 -0.093743294477 -0.078865431249 -0.10008662939
          -0.084935247898 -0.10971360654 -0.094236381352 -0.11954014748 -0.10362262279 -0.14506188035
          -0.13723833859 -0.14538416266 -0.13409286737 -0.13899771869 -0.12086898088 -0.11883250624
          -0.12915819883 -0.11247108132 -0.12910796702 -0.12419940531 -0.12933242321 -0.11286691576
          -0.11947822571 -0.12940843403 -0.13951310515 -0.17053759098 -0.16254216433 -0.17091326416
          -0.15931200981 -0.16435189545 -0.14568544924 -0.14358453453 -0.15423765779 -0.13700906932
          -0.15417271852 -0.14914269745 -0.15444934368 -0.13745827973 -0.14432197809 -0.15453508496
          -0.16492922604 -0.20268504322 -0.19454334676 -0.20309536159 -0.19125460088 -0.19638340175
          -0.17736040056 -0.17517744005 -0.18605995178 -0.16850596666 -0.1860177964 -0.18091368675
          -0.18627655506 -0.16900742054 -0.1760405153 -0.18642422557 -0.19699539244 -0.24174520373
          -0.23353894055 -0.24218574166 -0.23020234704 -0.23534055054 -0.21618883312 -0.21395926178
          -0.22497114539 -0.20725016296 -0.22492912412 -0.21978218853 -0.22517076135 -0.20779550076
          -0.21487687528 -0.22531321645 -0.23603363335 -0.28751313686 -0.27923852205 -0.28802472353
          -0.27581357956 -0.28096523881 -0.26164719462 -0.25934532285 -0.27054423094 -0.2525985837
          -0.27050292492 -0.26527547836 -0.27072277665 -0.25318074226 -0.26030790806 -0.27081081271
          -0.28177607059 -0.33925870061 -0.33070138097 -0.33980920911 -0.32714810967 -0.3324264586
          -0.31257292628 -0.31015872955 -0.32171535492 -0.30327659845 -0.32168403268 -0.31629168987
          -0.32184657454 -0.30387896299 -0.3111513555 -0.32192647457 -0.33329483867 -0.3951485455
          -0.38629287481 -0.39569315314 -0.38260710239 -0.38804128766 -0.36763349175 -0.3651214838
          -0.3770045042 -0.35810825229 -0.37698698044 -0.37142750621 -0.37707006931 -0.3587012887
          -0.3660915792 -0.37715241313 -0.38889184594 -0.45372676849 -0.44455063343 -0.45424106717
          -0.44076099992 -0.44635540247 -0.42535760999 -0.42275422812 -0.43495923281 -0.41561171412
          -0.43497300148 -0.42922818661 -0.43497893214 -0.41618072987 -0.42370316386 -0.4350733757
          -0.4471616447 -0.51359802485 -0.50406473875 -0.51408708096 -0.50014811754 -0.5059311986
          -0.48426145315 -0.48158073425 -0.49414604902 -0.47424274683 -0.49417120218 -0.48821771145
          -0.49412035942 -0.47476956248 -0.48246914148 -0.49420318007 -0.50669813156 -0.57341253757
          -0.56346809864 -0.57384413481 -0.5594137907 -0.56544142962 -0.54296565056 -0.54021668434
          -0.55318588018 -0.5326256752 -0.55320978165 -0.54702091217 -0.55312561989 -0.53308683634
          -0.5409822464 -0.55317854881 -0.56612998247 -0.63204038143 -0.62171089649 -0.63240540028
          -0.61756539345 -0.62383055687 -0.60057282448 -0.59776967764 -0.61108613014 -0.58994805813
          -0.61113631725 -0.60472875834 -0.61100906134 -0.59034073353 -0.5984428525 -0.61110252142
          -0.62437975407 -0.68883669376 -0.67816889286 -0.68911474943 -0.67392760515 -0.68040812016
          -0.65649753809 -0.65368372202 -0.66727608442 -0.6456310153 -0.66731750965 -0.66071635485
          -0.66719406843 -0.64593166113 -0.65420073271 -0.66724795103 -0.68083751202 -0.74337697029
          -0.73249310255 -0.74355626106 -0.7282282114 -0.73486238718 -0.71052861214 -0.7077422142
          -0.72145956755 -0.69953095913 -0.72150576115 -0.71477383375 -0.72138023376 -0.69973760843
          -0.70809793472 -0.72143423557 -0.73514127731 -0.7957495451 -0.78473347425 -0.79583394527
          -0.78048396111 -0.78722792864 -0.76264858246 -0.75992488861 -0.7736466527 -0.7516297698
          -0.77367985249 -0.76689004898 -0.7735683918 -0.75173610449 -0.76011228561 -0.77363294363
          -0.78734016418 -0.84656077623 -0.83538299799 -0.84656053782 -0.83111953735 -0.83799499273
          -0.81305420399 -0.81035894156 -0.82418042421 -0.80191034079 -0.82421666384 -0.81733173132
          -0.82411473989 -0.80194813013 -0.81043642759 -0.82419502735 -0.83796995878 -0.89607197046
          -0.88477104902 -0.89606493711 -0.88045483828 -0.88742136955 -0.86220353842 -0.85951143503
          -0.87347507477 -0.85093843937 -0.8734870553 -0.86650788784 -0.87343275547 -0.85094982386
          -0.85953307152 -0.87345558405 -0.88740867376 -0.94465619326 -0.93327379227 -0.94466221333
          -0.9289278388 -0.93595302105 -0.91053104401 -0.9078348279 -0.92188811302 -0.89918673038
          -0.92188888788 -0.91486901045 -0.92187321186 -0.89918327332 -0.9078438282 -0.921885252
          -0.93594843149 -0.99275588989 -0.98134636879 -0.99275016785 -0.97700577974 -0.98405325413
          -0.95855420828 -0.95585423708 -0.96993547678 -0.94716519117 -0.96995455027 -0.96291726828
          -0.96992319822 -0.94717305899 -0.95587307215 -0.96996599436 -0.98402988911 -0.078806601465
          -0.074889183044 -0.078890904784 -0.073335446417 -0.075807213783 -0.066687323153 -0.06575910002
          -0.07086250186 -0.06247838214 -0.070829391479 -0.068324461579 -0.070970386267 -0.062575101852
          -0.065906092525 -0.070967204869 -0.075944460928 -0.038983553648 -0.039079975337 -0.038898866624
          -0.039095256478 -0.0389608033 -0.038788322359 -0.038863241673 0.048165790737 0.04069782421
          0.048205904663 0.068187057972 0.059840779752 0.068236038089 0.037812009454 0.056639581919
          0.042548306286 0.061948262155 0.025369690731 0.023779798299 0.033179376274 0.042849875987
          0.041005086154 0.051479563117 0.017641736194 0.034217622131 0.033075533807 0.051388800144
          0.028364462778 0.046155266464 0.033420894295 0.051708310843 0.017662649974 0.034240961075
          0.023782288656 0.040988046676 0.033313747495 0.05162749812 0.042684908956 0.062054086477
          0.093979328871 0.084852166474 0.094013057649 0.081370569766 0.087136641145 0.066347070038
          0.064304962754 0.075718231499 0.056980077177 0.07564201951 0.069954060018 0.075921535492
          0.056998271495 0.064319297671 0.075873613358 0.087211862206 0.12512387335 0.11517758667
          0.12513625622 0.11138821393 0.11765684187 0.095063373446 0.092808641493 0.10521996021
          0.084904387593 0.10515768081 0.098969705403 0.10538250208 0.084910422564 0.092810474336
          0.10536509007 0.11768368632 0.16078823805 0.15000733733 0.1607838273 0.14590027928
          0.1526684612 0.12829008698 0.12584453821 0.13923601806 0.11735887825 0.13917832077
          0.13247136772 0.13938365877 0.11734092236 0.125798136 0.13933442533 0.15268416703
          0.20002706349 0.18852458894 0.20002827048 0.18413822353 0.19133806229 0.16537584364
          0.16275258362 0.1770234108 0.15373083949 0.1769759506 0.16982805729 0.17716801167
          0.15372182429 0.16271494329 0.17712408304 0.19135916233 0.24251553416 0.23037336767
          0.24253478646 0.22572617233 0.23333090544 0.20589342713 0.2031082809 0.21822188795
          0.19358077645 0.21815401316 0.21060822904 0.21836552024 0.19359064102 0.20310352743
          0.21832211316 0.23338310421 0.28888753057 0.27607163787 0.28890639544 0.27118161321
          0.27920359373 0.25027018785 0.24733246863 0.26325127482 0.23729759455 0.26319217682
          0.2552523315 0.26339566708 0.23731741309 0.24734699726 0.26338133216 0.27923741937
          0.33941632509 0.32592087984 0.33940687776 0.32079437375 0.32924574614 0.29878607392
          0.29569262266 0.31243297458 0.28514403105 0.31238564849 0.30401861668 0.31257390976
          0.28513845801 0.29569098353 0.312579602 0.32922622561 0.39369472861 0.37956273556
          0.39367854595 0.37418794632 0.38303080201 0.35115045309 0.34792804718 0.36544719338
          0.33686816692 0.36539128423 0.35662361979 0.36559942365 0.33686056733 0.34789100289
          0.36557486653 0.38302558661 0.45193058252 0.4372728467 0.45192605257 0.43169367313
          0.44086417556 0.40777903795 0.40442156792 0.42262017727 0.39295205474 0.42255741358
          0.41346347332 0.42278063297 0.3929540813 0.40440714359 0.42276284099 0.44087773561
          0.51424908638 0.49920102954 0.51424306631 0.49348142743 0.50288808346 0.46895843744
          0.46550437808 0.48416948318 0.45374801755 0.48411396146 0.4747864604 0.48431989551
          0.4537499845 0.46550473571 0.48431456089 0.50288552046 0.58059304953 0.56520569324
          0.58056592941 0.55937355757 0.56898987293 0.53430604935 0.53076893091 0.54983389378
          0.51877969503 0.54978579283 0.54026263952 0.54996782541 0.51876550913 0.53075838089
          0.54998928308 0.5689433217 0.6509835124 0.63524913788 0.65093427896 0.6292668581
          0.63910347223 0.60369676352 0.60011380911 0.61955153942 0.58787029982 0.61950266361
          0.60973930359 0.6196873188 0.58780932426 0.60000449419 0.61965471506 0.63904589415
          0.72490805387 0.70885074139 0.72485184669 0.70276415348 0.71276950836 0.67670464516
          0.67303156853 0.69283485413 0.66060066223 0.69279968739 0.68285161257 0.69293951988
          0.66052663326 0.67291027308 0.69291323423 0.71268421412 0.8015049696 0.78520292044
          0.80144500732 0.77901595831 0.78915756941 0.75259065628 0.74883931875 0.76893866062
          0.73626488447 0.7689089179 0.75882560015 0.76901620626 0.73619884253 0.74872970581
          0.76900166273 0.78906458616 0.87990927696 0.86342650652 0.87986367941 0.8571587801
          0.86738973856 0.83048802614 0.82666903734 0.84698903561 0.81400430202 0.84696251154
          0.83676874638 0.84703415632 0.81394344568 0.82656902075 0.84700924158 0.86732256413
          0.95957672596 0.94293576479 0.95954763889 0.93658685684 0.94689434767 0.90966439247
          0.90577441454 0.92630934715 0.89301508665 0.92630803585 0.91600614786 0.92634171247
          0.89298200607 0.90571177006 0.92632228136 0.94685930014 1.0395325422 1.0228089094
          1.0395259857 1.0164290667 1.0267728567 0.98938047886 0.98544716835 1.0060961246
          0.97267782688 1.0060973167 0.99576503038 1.0060955286 0.97266823053 0.98543798923
          1.006105423 1.0267598629 1.1195021868 1.102768898 1.1195003986 1.0963764191
          1.1067162752 1.0692884922 1.0653343201 1.086024642 1.0525515079 1.086025238
          1.0756834745 1.0860292912 1.0525537729 1.0653454065 1.0860325098 1.1067197323
          0.01832796447 0.014558954164 0.018468080088 0.012981071137 0.015433671884 0.0060005970299
          0.0051657264121 0.010486561805 0.0015300613595 0.010380861349 0.0077685704455 0.010718434118
          0.0016284110025 0.0053016827442 0.010627837852 0.015726193786 -0.019736733288 -0.02025083825
          -0.021733460948 -0.017720209435 -0.018933508545 -0.021554851905 -0.019976811484 -0.024755490944
          -0.018724596128 -0.012728639878 -0.0091170351952 -0.018795505166 -0.028493613005 -0.018840713426
          -0.0092143248767 -0.018886597827 -0.012990934774 -0.024881893769 -0.018965732306 -0.028539961204
          -0.015496263281 -0.011195316911 -0.0069083874114 -0.0041479961947 -0.01122785639 -0.018260184675
          -0.011256453581 -0.0040928665549 -0.011307220906 -0.006867478136 -0.015833377838 -0.011394103058
          -0.018430428579 -0.0078446231782 -0.0049415989779 -0.0019959101919 2.1560821551e-05 -0.0049147014506
          -0.0097780590877 -0.0049413875677 0.00015954650007 -0.0049986313097 -0.0018379995599 -0.0083556212485
          -0.0051659527235 -0.010052690282 -0.0030170136597 -0.0012503729668 0.00057305011433 0.0019410642562
          -0.0012186901877 -0.0043050162494 -0.0012407747563 0.0021349280141 -0.0012969118543 0.00083580549108
          -0.0035953263287 -0.0014372998849 -0.00461535668 -0.00074665847933 -3.0129132938e-05 0.00070541928289
          0.0014550528722 -2.3905806302e-05 -0.0014496132499 -4.8632718972e-05 0.001724063186 -9.0354951681e-05
          0.0011088381289 -0.0014152853983 -0.00018966298376 -0.001816652948 -3.8470860036e-15 -8.0361325233e-13
          1.118925807e-12 -3.1788650488e-13 4.2328537593e-13 1.9924060774e-13 1.6626591326e-13 -5.670528981e-15
          1.3811773448e-14 0 0 0 -3.337041811e-14
        </DataArray>
        <DataArray type="Float32" Name="uz" format="ascii" RangeMin="-0.10686727613" RangeMax="0.064141310751">
          0.0049096946605 0.0048608873039 0.0035894669127 -0.0043020993471 -0.013345235027 -0.012626003474
          -0.011216943152 0.0061084781773 0.0059011559933 0.0038686047774 -0.0024571344256 -0.0089178243652
          -0.011632929556 -0.0069264522754 0.0036324644461 0.00050544552505 -0.014914724976 -0.011155161075
          0.0038960603997 -0.0011753824074 -0.0088095618412 0.0045790057629 -0.0070988801308 -0.013834726997
          -0.0057290741242 0.0022964056116 -0.0033665255178 -0.042030703276 -0.035106234252 -0.035919360816
          -0.044153645635 -0.036597616971 -0.039263546467 -0.039768170565 -0.039613068104 -0.045194160193
          -0.045206900686 -0.030447496101 -0.023405166343 -0.029345041141 -0.029043709859 -0.023034604266
          -0.030114328489 -0.026571860537 -0.02392673865 -0.034308135509 -0.034056346864 -0.036883421242
          -0.034892812371 -0.024415142834 -0.026257716119 -0.032693825662 -0.028712630272 -0.039412263781
          -0.035595197231 -0.044197633862 -0.041947729886 -0.029190041125 -0.032415419817 -0.03945273906
          -0.033093780279 -0.031684558839 -0.039960552007 -0.045348834246 -0.032128363848 -0.02376479283
          -0.028242284432 -0.0296858605 -0.034560486674 -0.03936444968 -0.021971670911 -0.037462640554
          -0.044117838144 -0.047139350325 -0.024992451072 -0.036591235548 -0.030738901347 -0.026683431119
          -0.040330994874 -0.045825008303 -0.033964306116 -0.023844774812 -0.026800060645 -0.033070039004
          -0.034829415381 -0.042324710637 -0.018808925524 -0.042980566621 -0.04977850616 -0.05086421594
          -0.019880464301 -0.033471040428 -0.028148153797 -0.02116721496 -0.040786121041 -0.046426761895
          -0.036030251533 -0.023922467604 -0.025213889778 -0.036864098161 -0.035165656358 -0.045656189322
          -0.015266922303 -0.049175646156 -0.056133367121 -0.055083516985 -0.014207319357 -0.02993477881
          -0.02541317232 -0.015263858251 -0.041156023741 -0.046767041087 -0.038419723511 -0.024396870285
          -0.023723630235 -0.041216667742 -0.035582967103 -0.049193713814 -0.011837127618 -0.055893655866
          -0.062809765339 -0.059320408851 -0.008347642608 -0.025717569515 -0.022423509508 -0.0089268768206
          -0.041154555976 -0.046425122768 -0.041037667543 -0.025417011231 -0.022350342944 -0.046111349016
          -0.035929203033 -0.052657928318 -0.0087226871401 -0.062922373414 -0.069413036108 -0.063104994595
          -0.0024359398521 -0.020808545873 -0.019252963364 -0.0023091228213 -0.040663316846 -0.045185245574
          -0.043877646327 -0.027182307094 -0.021237066016 -0.051545005292 -0.03618215397 -0.055881105363
          -0.0062473923899 -0.070050299168 -0.075616851449 -0.066109187901 0.0032427087426 -0.015476406552
          -0.01609618403 0.0042157927528 -0.039756588638 -0.043157119304 -0.046861242503 -0.029648834839
          -0.020484227687 -0.057326514274 -0.036391977221 -0.058763939887 -0.0045359716751 -0.077002033591
          -0.081174008548 -0.068238802254 0.0083922911435 -0.0099817570299 -0.013139517978 0.010372881778
          -0.038549076766 -0.040505506098 -0.049931857735 -0.032734993845 -0.02017480135 -0.06325763464
          -0.03661455214 -0.061283696443 -0.0036786235869 -0.083600908518 -0.086011491716 -0.069542273879
          0.012776033953 -0.0046117547899 -0.01047345344 0.015938954428 -0.037140004337 -0.037455301732
          -0.052963916212 -0.036240659654 -0.020250402391 -0.069097198546 -0.036843471229 -0.063396222889
          -0.0036129967775 -0.089626811445 -0.090002298355 -0.070061825216 0.016310187057 0.00047182824346
          -0.0081304963678 0.020812215284 -0.03559846431 -0.034168887883 -0.05576601997 -0.039891768247