<VTKFile type="UnstructuredGrid" version="1.0" byte_order="LittleEndian" header_type="UInt64">
  <UnstructuredGrid>
    <Piece NumberOfPoints="791" NumberOfCells="973">
      <PointData>
        <DataArray type="Float32" Name="ux" format="ascii" RangeMin="-1.0045208931" RangeMax="0.91722178459">
          0.050684355199 -0.019531883299 0.036549825221 0.063089460135 0.050912804902 0.038385529071
          -0.023283900693 -0.012779557146 -0.10046911985 -0.068279877305 -0.016787387431 -0.10917668045
          -0.014447259717 -0.071177847683 0.10546367615 0.10009635985 0.11299347132 0.10120557249
          -0.081297524273 -0.10197090358 -0.089546017349 -0.13915702701 -0.15316596627 0.10091724247
          0.11248954386 0.091901801527 0.025674909353 -0.12411782891 -0.21277754009 -0.23946854472
          -0.11183152348 -0.19300951064 -0.21969741583 -0.11023689806 -0.096826300025 -0.034990929067
          -0.027184603736 -0.21272972226 -0.33403027058 -0.27794143558 -0.19100239873 -0.30218985677
          -0.25202748179 -0.23913297057 -0.2146255523 -0.1850746274 -0.16586357355 -0.11097106338
          -0.096849791706 -0.37206611037 -0.33878424764 -0.12634022534 -0.11124929041 -0.038170505315
          -0.02931483835 -0.0037089141551 0.0031726593152 -0.33545953035 -0.30709636211 -0.066997215152
          -0.16102042794 -0.19037374854 -0.050633858889 0.030158998445 -0.16068379581 -0.29114615917
          -0.23042200506 -0.18940392137 -0.13093326986 -0.050851877779 -0.33103045821 -0.067384049296
          0.029089715332 0.066304080188 -0.29193255305 0.048596408218 -0.049493357539 -0.080091029406
          0.066848874092 0.15137267113 -0.050568073988 -0.18855749071 -0.12294714153 -0.082241334021
          -0.01803670451 0.066798195243 -0.22857050598 0.04820721224 0.15219178796 0.19118712842
          -0.18659707904 0.19724525511 0.097136586905 0.064366430044 0.21885615587 0.305747509
          0.097619019449 -0.047572936863 0.021386718377 0.06386308372 0.13109505177 0.22042047977
          -0.088291712105 0.20159901679 0.31070753932 0.34960266948 -0.044554691762 0.35669395328
          0.25998961926 0.22793838382 0.37847018242 0.46261119843 0.25983291864 0.11659300327
          0.18563725054 0.22511224449 0.29289802909 0.38052180409 0.078217662871 0.3612422049
          0.46924299002 0.50667583942 0.12200957537 0.51166176796 0.42017623782 0.38984036446
          0.53326141834 0.61363536119 0.41897797585 0.28269156814 0.34916120768 0.38541075587
          0.45124766231 0.53523886204 0.2473256588 0.51641505957 0.62115395069 0.65708911419
          0.28957358003 0.65628856421 0.57190650702 0.5431124568 0.67724084854 0.75163179636
          0.57098084688 0.44457626343 0.50663346052 0.53956830502 0.601362288 0.6793615222
          0.41255107522 0.66134959459 0.75922548771 0.7927980423 0.45094102621 0.7613401413
          0.68865907192 0.66242659092 0.78069186211 0.84585171938 0.68862587214 0.57892310619
          0.63239562511 0.66074746847 0.71490728855 0.78246992826 0.55062556267 0.76575440168
          0.85155522823 0.88155454397 0.58284676075 0.81413275003 0.75139814615 0.72776263952
          0.8308404088 0.8876067996 0.75125390291 0.65887874365 0.70377469063 0.72704595327
          0.77401047945 0.83147603273 0.63454258442 0.81546264887 0.88940268755 0.91722178459
          0.66048485041 0.80227148533 0.74510282278 0.7225061059 0.81830900908 0.87063407898
          0.74476116896 0.66140824556 0.70186430216 0.72217947245 0.76560109854 0.81812989712
          0.63903468847 0.80250841379 0.8714466691 0.89787209034 0.6613637805 0.70989519358
          0.65675598383 0.63537144661 0.7251175046 0.77412509918 0.65772944689 0.58043581247
          0.61727112532 0.63700437546 0.67659151554 0.72544151545 0.55914342403 0.71120965481
          0.77435529232 0.7992798686 0.57903546095 0.53849029541 0.48910677433 0.47035866976
          0.55104547739 0.59538596869 0.48927247524 0.41984784603 0.45265993476 0.47116473317
          0.50658327341 0.55086404085 0.40008282661 0.53834986687 0.59523379803 0.6175571084
          0.41845968366 0.31567212939 0.2700137794 0.2538356483 0.32598185539 0.36621937156
          0.26976442337 0.20545917749 0.23613277078 0.25412845612 0.28564691544 0.3259216249
          0.18679070473 0.31549355388 0.36603820324 0.38544163108 0.20482552052 0.071437269449
          0.029175663367 0.014759693295 0.080207869411 0.11688210815 0.029196443036 -0.030393112451
          -0.0024447483011 0.015126417391 0.043270736933 0.080041311681 -0.047887094319 0.071450002491
          0.11675664037 0.13424503803 -0.030670071021 -0.17405746877 -0.20852434635 -0.21904478967
          -0.16750496626 -0.13802589476 -0.20896658301 -0.25812506676 -0.23470427096 -0.22048826516
          -0.19756515324 -0.16741716862 -0.27231130004 -0.17380768061 -0.13679187 -0.12348184735
          -0.25689443946 -0.40351980925 -0.42947039008 -0.43721786141 -0.39857470989 -0.3761613667
          -0.4299236536 -0.46786215901 -0.44950371981 -0.43845245242 -0.42113909125 -0.39755004644
          -0.47812050581 -0.40170714259 -0.37340137362 -0.36422809958 -0.46560537815 -0.60862112045
          -0.62741369009 -0.63250392675 -0.60543334484 -0.58951330185 -0.6275023818 -0.65423506498
          -0.64127153158 -0.6333540082 -0.6214184761 -0.60500234365 -0.66123580933 -0.60814857483
          -0.5884398222 -0.58147776127 -0.65263915062 -0.79274767637 -0.80693548918 -0.81103044748
          -0.79043281078 -0.77854317427 -0.80695134401 -0.82643282413 -0.81728547812 -0.81088411808
          -0.80235528946 -0.79054695368 -0.83242541552 -0.79322004318 -0.77886033058 -0.77328622341
          -0.82654970884 -0.96951687336 -0.98158150911 -0.98568439484 -0.96704041958 -0.95603173971
          -0.98216539621 -0.9993417263 -0.99105125666 -0.98639065027 -0.97783112526 -0.96723383665
          -1.0045208931 -0.96988677979 -0.95599871874 -0.95083338022 -0.99914318323 -0.0082365991548
          -0.095338203013 -0.1051710248 -0.01350797154 0.058500584215 -0.12146089971 -0.22565765679
          -0.16228942573 -0.15776585042 -0.08459879458 -0.030317839235 -0.23993441463 -0.063328079879
          0.023094531149 0.069719858468 -0.1941332072 -0.068543978035 -0.15748532116 -0.11106219143
          -0.026378648356 0.011233550496 -0.031345196068 0.049791064113 -0.15255652368 -0.19209873676
          -0.20427116752 -0.25705951452 -0.29578900337 -0.30793571472 -0.1447673142 -0.25004678965
          -0.11045671254 -0.21762089431 -0.19261065125 -0.24960592389 -0.22213146091 -0.2958086133
          -0.3497428 -0.32453387976 -0.2066898793 -0.30770221353 -0.17914263904 -0.28340446949
          -0.14434942603 -0.25023782253 -0.26460263133 -0.36612662673 -0.1524669975 -0.25688606501
          -0.10925726593 -0.21709617972 -0.093544349074 -0.20260952413 -0.24691550434 -0.35003855824
          -0.32757520676 -0.36888903379 -0.38098520041 -0.32217025757 -0.28752627969 -0.36969313025
          -0.42435356975 -0.39941465855 -0.38090738654 -0.35679587722 -0.32317215204 -0.44241058826
          -0.33025756478 -0.29005163908 -0.27379095554 -0.42586895823 -0.35144659877 -0.3960582912
          -0.40913262963 -0.34569084644 -0.30860081315 -0.39589354396 -0.45391228795 -0.42798224092
          -0.4074088335 -0.38252046704 -0.34700009227 -0.4741294682 -0.3541842401 -0.31203451753
          -0.29438233376 -0.45691725612 -0.3253313303 -0.37255436182 -0.38665789366 -0.31905081868
          -0.27933293581 -0.37266209722 -0.43332692981 -0.40614524484 -0.38540530205 -0.35806044936
          -0.32058528066 -0.45407095551 -0.32902929187 -0.28384646773 -0.26473721862 -0.43652129173
          -0.26000440121 -0.30731612444 -0.32195654511 -0.25283694267 -0.21278257668 -0.3078610301
          -0.37169441581 -0.34219807386 -0.32212716341 -0.29277080297 -0.25391995907 -0.39206200838
          -0.26305034757 -0.21588595212 -0.19685964286 -0.37308934331 -0.16920115054 -0.21919672191
          -0.23456372321 -0.16097223759 -0.11837328225 -0.22000615299 -0.28861191869 -0.25633507967
          -0.23566566408 -0.20366042852 -0.16179160774 -0.3096857965 -0.17115329206 -0.1198823601
          -0.099778912961 -0.28856822848 -0.043049391359 -0.10041416436 -0.11864735186 -0.03248019889
          0.016850788146 -0.10053113848 -0.1800070554 -0.14272658527 -0.11875475198 -0.081984996796
          -0.033090639859 -0.2041901648 -0.044449783862 0.015479821712 0.038961738348 -0.18072721362
          0.10373649001 0.038678519428 0.016587615013 0.11738587916 0.17444911599 0.038898315281
          -0.052313391119 -0.0092208469287 0.017292527482 0.060707103461 0.11693391204 -0.078756511211
          0.10297121108 0.17293654382 0.20077373087 -0.052947450429 0.23379924893 0.16074892879
          0.13533101976 0.24996699393 0.31464254856 0.16021430492 0.057987429202 0.10683459044
          0.13442717493 0.18529592454 0.24896843731 0.029252998531 0.23161181808 0.3129735589
          0.34577822685 0.057946417481 0.31760728359 0.23632909358 0.20788678527 0.33600458503
          0.40844345093 0.23533308506 0.12034332752 0.17587719858 0.20580112934 0.26396486163
          0.33548286557 0.088898681104 0.31534406543 0.40695178509 0.44328007102 0.12155507505
          0.33992934227 0.25314491987 0.22268007696 0.36016482115 0.43724089861 0.25268214941
          0.12842555344 0.18812432885 0.22099387646 0.28280946612 0.35999304056 0.094303235412
          0.33978199959 0.43799462914 0.47573834658 0.13010905683 0.30389711261 0.21018388867
          0.17835590243 0.32482212782 0.40786963701 0.21008576453 0.076107308269 0.14020387828
          0.1767732203 0.2419732064 0.32491129637 0.038656979799 0.30418807268 0.408739537
          0.44848179817 0.077590182424 0.2378308177 0.13459698856 0.10014238954 0.25873193145
          0.34887868166 0.13387800753 -0.011719177477 0.0576024279 0.099031575024 0.16853663325
          0.25852051377 -0.053263891488 0.23634910583 0.348267138 0.3916426003 -0.010608768091
          0.15734216571 0.049736361951 0.01411715243 0.17903332412 0.27300783992 0.049178015441
          -0.10337599367 -0.031054245308 0.012757120654 0.085152111948 0.17905975878 -0.1474263221
          0.15659148991 0.27283889055 0.31710684299 -0.10229437053 0.083489269018 -0.025173977017
          -0.060892291367 0.10510715097 0.19953760505 -0.024993503466 -0.17841809988 -0.10614422709
          -0.060829486698 0.011056402698 0.10548979044 -0.22317416966 0.083679676056 0.19976660609
          0.24380554259 -0.17806389928 0.021270459518 -0.085087053478 -0.11969763786 0.04233238101
          0.13480380177 -0.085216373205 -0.23448699713 -0.16411562264 -0.11992622167 -0.050068259239
          0.04224222526 -0.2781932354 0.021380417049 0.13485179842 0.17799018323 -0.2342043221
          -0.021598976105 -0.12649926543 -0.160575822 -0.0013278750703 0.089529804885 -0.12720440328
          -0.2741419673 -0.20467862487 -0.16151113808 -0.092251382768 -0.0017117081443 -0.31742635369
          -0.022869911045 0.088781058788 0.13171514869 -0.27401137352 -0.048140864819 -0.15376923978
          -0.18830704689 -0.026996387169 0.065004400909 -0.15396431088 -0.30172419548 -0.23225267231
          -0.18877060711 -0.11894191802 -0.027404209599 -0.34534308314 -0.048959985375 0.064286634326
          0.10746736079 -0.30205529928 -0.066410772502 -0.17224486172 -0.2075483501 -0.044692475349
          0.048138078302 -0.1725114733 -0.32160106301 -0.25129762292 -0.20765209198 -0.13725323975
          -0.045045595616 -0.36551392078 -0.066953070462 0.047618746758 0.09149453789 -0.3217407167
          -0.0099003305659 -0.073997795582 -0.075754657388 -0.020541682839 0.03172871843 -0.10395909101
          -0.17583604157 -0.12502451241 -0.13578279316 -0.072544321418 -0.039741046727 -0.17732571065
          -0.071627371013 -0.0071891727857 0.032600939274 -0.13936461508 -0.064097717404 -0.14386549592
          -0.10247445107 -0.023717749864 0.0094053903595 -0.031276140362 0.043031424284 0.020853502676
          0.0072058704682 0.023586681113 0.063644818962 0.056898519397 0.059552390128 0.088492184877
          0.11441329122 0.1206612587 0.15698938072 0.15546743572 0.17319571972 0.11134570837
          0.041971731931 0.030950829387 0.044184993953 0.075875207782 0.069934636354 0.071275226772
          0.094032593071 0.11495439708 0.11822215468 0.14666436613 0.14280153811 0.15666571259
          0.10965964943 0.038722198457 0.031714316458 0.041469808668 0.06437510252 0.058891817927
          0.059401415288 0.076082386076 0.091751843691 0.093090377748 0.11372325569 0.10988107324
          0.12049909681 0.086834773421 0.028001345694 0.024203663692 0.030134513974 0.044083740562
          0.03986980021 0.038886532187 0.049518696964 0.060770016164 0.059634074569 0.073450960219
          0.068614214659 0.076168574393 0.054150007665 0.0071585588157 0.0065258815885 0.011113621294
          0.019069718197 0.014265455306 0.013890263624 0.019331583753 0.026058262214 0.024124916643
          0.029960071668 0.028969136998 0.031159963459 0.022817641497 -1.4468164167e-10 3.6490852007e-10
          -9.5225355379e-11 1.1999611374e-11 6.1040623944e-11 2.0641044429e-11 -7.9675988029e-12 -4.1603805362e-13
          5.1608629886e-14 0 0 0 -5.4878529428e-14
        </DataArray>
        <DataArray type="Float32" Name="uy" format="ascii" RangeMin="-1.1315598488" RangeMax="1.027759552">
          -0.11248417944 -0.11078033596 -0.10751850158 -0.010614200495 0.092560179532 0.074712358415
          0.081639572978 -0.11298656464 -0.11268740892 -0.076176509261 -0.011992281303 0.086352229118
          0.091425046325 0.050827410072 -0.11131872237 -0.074571862817 0.086472816765 0.052588745952
          -0.10384663939 -0.01371577289 0.060925021768 -0.10356388986 0.061650030315 0.060535475612
          -0.01125740353 -0.10266465694 -0.011311085895 0.19952082634 0.114270024 0.20333480835
          0.37809711695 0.29720801115 0.38083538413 0.078934557736 0.2645200789 0.12982173264
          0.31277802587 -0.061413895339 -0.084948137403 0.026197088882 0.1340098083 0.11182451993
          0.21480816603 -0.14956849813 0.052544496953 0.026342574507 0.21535283327 -0.027201628312
          0.16527469456 0.025281753391 0.2135425508 -0.14632518589 0.054996352643 -0.079886212945
          0.11581927538 0.024088509381 0.21288973093 0.13639681041 0.31756982207 -0.011431875639
          -0.10446929187 -0.0086517613381 -0.14199705422 -0.085459478199 -0.2951746881 -0.31914016604
          -0.19955381751 -0.39041054249 -0.19993460178 -0.2585310638 -0.19988116622 -0.38818189502
          -0.31592687964 -0.20127938688 -0.080601520836 -0.24218176305 -0.34056341648 -0.24083970487
          -0.37871307135 -0.31773999333 -0.54049605131 -0.56441932917 -0.44022390246 -0.6409342289
          -0.44045937061 -0.50167399645 -0.43969726562 -0.63981187344 -0.56237065792 -0.43949660659
          -0.31585645676 -0.45885968208 -0.56213474274 -0.45881217718 -0.60141897202 -0.53616780043
          -0.77078956366 -0.79466813803 -0.66547012329 -0.87630552053 -0.66584587097 -0.73009252548
          -0.66393506527 -0.8754221797 -0.79332321882 -0.66340130568 -0.53609406948 -0.63846451044
          -0.73912996054 -0.63870322704 -0.7770191431 -0.71277230978 -0.94315689802 -0.96563011408
          -0.83975440264 -1.046511054 -0.84049040079 -0.90283852816 -0.8373273015 -1.046079278
          -0.96425163746 -0.83619225025 -0.7130510807 -0.74099081755 -0.83743309975 -0.74207663536
          -0.873003304 -0.81061094999 -1.0321736336 -1.0524458885 -0.93319416046 -1.1311602592
          -0.93399763107 -0.99398744106 -0.93001925945 -1.1315598488 -1.0533618927 -0.9291383028
          -0.81269359589 -0.75402110815 -0.84413611889 -0.75614017248 -0.87634032965 -0.81805533171
          -1.0243772268 -1.0425218344 -0.9326082468 -1.1159032583 -0.93325215578 -0.98888528347
          -0.92978477478 -1.1171451807 -1.0443451405 -0.92861711979 -0.82199066877 -0.68636584282
          -0.76611465216 -0.68898481131 -0.79459697008 -0.74307513237 -0.92385554314 -0.93958175182
          -0.84376460314 -1.0034154654 -0.84468853474 -0.89382433891 -0.84184598923 -1.0052530766
          -0.94288432598 -0.84133261442 -0.74742019176 -0.55751031637 -0.6265540719 -0.56090158224
          -0.65071302652 -0.60672283173 -0.76002341509 -0.77339100838 -0.69298881292 -0.82658082247
          -0.69312477112 -0.73508524895 -0.69205158949 -0.82934045792 -0.77773487568 -0.69153046608
          -0.61213225126 -0.38971602917 -0.45376157761 -0.39377075434 -0.47546562552 -0.43515837193
          -0.57601237297 -0.58835625648 -0.51500970125 -0.63626098633 -0.51454406977 -0.55340182781
          -0.51567846537 -0.64006263018 -0.59344059229 -0.51410317421 -0.44225344062 -0.22305239737
          -0.2828733623 -0.22715854645 -0.30362194777 -0.26617982984 -0.39652591944 -0.40786716342
          -0.34001761675 -0.45217913389 -0.33983814716 -0.3759817481 -0.34079626203 -0.45569574833
          -0.41369333863 -0.34043383598 -0.27240020037 -0.073508486152 -0.12740901113 -0.076498165727
          -0.14543101192 -0.11173336953 -0.22942639887 -0.24083706737 -0.17913115025 -0.28004181385
          -0.17833000422 -0.21014425159 -0.18013367057 -0.28228268027 -0.24320812523 -0.17756065726
          -0.11810261756 0.068051226437 0.019864259288 0.066771484911 0.0028486987576 0.032730598003
          -0.073930867016 -0.085250787437 -0.02766158618 -0.12066344172 -0.026955861598 -0.055526793003
          -0.028371596709 -0.12128050625 -0.084999479353 -0.026206733659 0.029519947246 0.20212163031
          0.15850068629 0.20188337564 0.14190919697 0.16878180206 0.072021745145 0.061455138028
          0.11489381641 0.028782749549 0.11518551409 0.088567316532 0.1148802191 0.029092309996
          0.062328398228 0.11542986333 0.16871625185 0.33189713955 0.29711401463 0.33248633146
          0.28383335471 0.30525755882 0.22621652484 0.21732485294 0.26157060266 0.1904258579
          0.2617700398 0.24034270644 0.26187068224 0.19113172591 0.21936312318 0.26282581687
          0.30620214343 0.47431901097 0.44865992665 0.47489205003 0.43871927261 0.45501720905
          0.39417076111 0.38782972097 0.42198875546 0.36572390795 0.42204484344 0.40537512302
          0.42274153233 0.36673918366 0.38911733031 0.42313459516 0.45585057139 0.64150077105
          0.62332969904 0.64212274551 0.61585211754 0.62751972675 0.58491039276 0.58055949211
          0.6045987606 0.56508159637 0.60433703661 0.59249120951 0.60539495945 0.56571936607
          0.58095377684 0.60482239723 0.62880629301 0.83096325397 0.81731283665 0.83154916763
          0.81192672253 0.82037329674 0.78934717178 0.78570592403 0.80326193571 0.77498173714
          0.80332046747 0.79474180937 0.8037199378 0.77537155151 0.78646504879 0.80366623402
          0.82119911909 1.027759552 1.0147117376 1.0274208784 1.0100545883 1.0181074142
          0.98815602064 0.98479598761 1.0014033318 0.97507935762 1.001927495 0.99366313219
          1.0009413958 0.97515034676 0.98546159267 1.0020290613 1.0177263021 0.41642960906
          0.33715137839 0.41797471046 0.3059758842 0.35389268398 0.1823425144 0.16344919801
          0.25937139988 0.10561724752 0.25890505314 0.21062704921 0.25916835666 0.10589028895
          0.16259503365 0.25655826926 0.35660666227 0.036589175463 0.032338496298 0.011595880613
          0.060562334955 0.045580033213 0.010768101551 0.030467068776 -0.46740466356 -0.42789340019
          -0.46708500385 -0.51567202806 -0.47743844986 -0.51702457666 -0.412892133 -0.46235400438
          -0.43770694733 -0.48599877954 -0.34689286351 -0.33797332644 -0.38805419207 -0.40045171976
          -0.39102739096 -0.43884393573 -0.3054882586 -0.36203747988 -0.38771855831 -0.43875867128
          -0.36255601048 -0.41586339474 -0.38857620955 -0.43874740601 -0.30523666739 -0.36325332522
          -0.33727449179 -0.39333239198 -0.38839843869 -0.43978434801 -0.43756887317 -0.48758590221
          -0.58155763149 -0.54222875834 -0.58378744125 -0.52632790804 -0.54977828264 -0.4619576335
          -0.45045247674 -0.50119978189 -0.42194402218 -0.50189393759 -0.47794631124 -0.50062584877
          -0.42407274246 -0.45470258594 -0.50197649002 -0.5524687767 -0.63302218914 -0.59129565954
          -0.63556170464 -0.57401221991 -0.59827971458 -0.50540298223 -0.49238821864 -0.54743391275
          -0.46235439181 -0.54827189445 -0.52245646715 -0.54601597786 -0.46504569054 -0.49689406157
          -0.54675388336 -0.60169363022 -0.63691616058 -0.59211540222 -0.63883072138 -0.57414710522
          -0.59990376234 -0.50269305706 -0.48952430487 -0.54622334242 -0.45817098022 -0.54703205824
          -0.52002429962 -0.54442536831 -0.46020063758 -0.49306821823 -0.5454261899 -0.60280406475
          -0.59166389704 -0.54613476992 -0.59399473667 -0.52727085352 -0.55437588692 -0.45365583897
          -0.44106584787 -0.49909776449 -0.40735721588 -0.49940091372 -0.4713204205 -0.49874034524
          -0.40881618857 -0.44341161847 -0.49823191762 -0.55781131983 -0.5262042284 -0.47701352835
          -0.5278044939 -0.45722785592 -0.48721259832 -0.37679332495 -0.36426916718 -0.42672935128
          -0.32684931159 -0.426846385 -0.39610648155 -0.42667335272 -0.32797789574 -0.36593776941
          -0.4263727963 -0.48974081874 -0.46441546082 -0.40634843707 -0.46533039212 -0.38375246525
          -0.41928717494 -0.29051187634 -0.27679014206 -0.34802222252 -0.2332649678 -0.34807580709
          -0.31256955862 -0.3480848968 -0.23399110138 -0.27744263411 -0.34799319506 -0.42066922784
          -0.40464988351 -0.33781927824 -0.40420377254 -0.3121547401 -0.353479743 -0.20556814969
          -0.19061419368 -0.27194464207 -0.14010624588 -0.27139979601 -0.23017285764 -0.27179282904
          -0.13907071948 -0.18882413208 -0.27067199349 -0.35309895873 -0.33558821678 -0.25869035721
          -0.33352163434 -0.2303455621 -0.27851945162 -0.10887362063 -0.093409970403 -0.18363898993
          -0.03541592136 -0.18364554644 -0.13628855348 -0.1840236783 -0.032340697944 -0.087891161442
          -0.18295899034 -0.27523902059 -0.25818449259 -0.172497347 -0.25578480959 -0.14099425077
          -0.19456847012 -0.0051912879571 0.011686180718 -0.089066639543 0.077485747635 -0.088530160487
          -0.035678081214 -0.089971192181 0.081171542406 0.018619377166 -0.08815882355 -0.19104878604
          -0.18422417343 -0.092270351946 -0.18184952438 -0.058232586831 -0.11584596336 0.088963598013
          0.10741414875 -0.0023695027921 0.17891190946 -0.0016352052335 0.055625971407 -0.0031945833471
          0.18236583471 0.11399266869 -0.00099232653156 -0.11262250692 -0.1228948459 -0.024790491909
          -0.12154856324 0.012424906716 -0.049052607268 0.17080485821 0.19167071581 0.072154857218
          0.26796516776 0.073157519102 0.13453806937 0.07167095691 0.27036651969 0.19630612433
          0.073709972203 -0.04753991589 -0.075895510614 0.029597016051 -0.075818933547 0.070440918207
          0.0048484881409 0.24153670669 0.26554366946 0.13508811593 0.34743565321 0.13562346995
          0.20186461508 0.13434295356 0.34858006239 0.26822951436 0.13638548553 0.0046377475373
          -0.024420265108 0.085623808205 -0.024957861751 0.12825959921 0.060481976718 0.30742660165
          0.33372685313 0.1962813884 0.41853296757 0.196421206 0.26526239514 0.19617706537
          0.41856080294 0.33367884159 0.19725824893 0.059021376073 0.039038144052 0.14936248958
          0.03787734732 0.19256521761 0.12434690446 0.37192842364 0.39838370681 0.26022782922
          0.48340344429 0.26095607877 0.32933804393 0.26013684273 0.48264810443 0.39752519131
          0.26098737121 0.12223422527 0.10102815181 0.20867490768 0.10031743348 0.25072592497
          0.18423892558 0.42546960711 0.45114183426 0.31678816676 0.53394466639 0.31712946296
          0.38426321745 0.31691101193 0.53375327587 0.45107856393 0.31787848473 0.18265846372
          0.16262033582 0.26869654655 0.16202481091 0.30946668983 0.2444691509 0.48193463683
          0.50798135996 0.37563088536 0.58899241686 0.37516623735 0.44101843238 0.3758725822
          0.58829957247 0.50658148527 0.37545719743 0.24352493882 0.22930268943 0.33719301224
          0.22886925936 0.37811017036 0.31172034144 0.5521042943 0.57779443264 0.44494214654
          0.65934848785 0.44458985329 0.51089954376 0.44505381584 0.65910083055 0.57715755701
          0.44468295574 0.31148016453 0.29496264458 0.40425932407 0.29488685727 0.44620805979
          0.37860643864 0.62271177769 0.64858311415 0.51362323761 0.73122566938 0.51379811764
          0.58119678497 0.51359778643 0.73116999865 0.64815926552 0.51361745596 0.37806496024
          -0.37147805095 -0.33477008343 -0.37183052301 -0.32027518749 -0.34260088205 -0.26324731112
          -0.25574141741 -0.29916957021 -0.2282589674 -0.29846063256 -0.27554771304 -0.29934963584
          -0.22719468176 -0.25282302499 -0.29679232836 -0.34389492869 -0.097380496562 -0.094885796309
          -0.090580329299 -0.10397990048 -0.099820964038 -0.090729065239 -0.094927921891 0.025263357908
          -0.02169486694 -0.068120703101 -0.096983723342 -0.020282350481 0.056575547904 -0.019263492897
          -0.096948675811 -0.018426621333 -0.066996760666 0.031490195543 -0.017073623836 0.059499464929
          -0.0093650687486 -0.046408366412 -0.082618787885 -0.10529458523 -0.045112416148 0.014897091314
          -0.043949153274 -0.10455709696 -0.043246347457 -0.080133259296 -0.0038456013426 -0.041533838958
          0.017174547538 -0.035395655781 -0.061520524323 -0.087148748338 -0.10222101957 -0.06057818234
          -0.018336651847 -0.059177570045 -0.10040582716 -0.057796597481 -0.08184850961 -0.029478745535
          -0.054091021419 -0.015750002116 -0.037681717426 -0.053466059268 -0.068870559335 -0.078190498054
          -0.052590094507 -0.027182290331 -0.051529414952 -0.07711482048 -0.050774846226 -0.065347738564
          -0.033056583256 -0.048408154398 -0.025203719735 -0.017049610615 -0.025618515909 -0.032416135073
          -0.034976821393 -0.023801470175 -0.011706364341 -0.023077465594 -0.032979682088 -0.022424349561
          -0.028054391965 -0.015869192779 -0.02163184993 -0.011444617994 6.8021009832e-12 -4.9453037151e-12
          -3.9049523164e-12 8.1205753927e-12 5.9472918127e-13 -7.5199612162e-12 2.3329634665e-13 -1.4581860228e-14
          -1.394689621e-13 0 0 0 -7.0603787573e-14
        </DataArray>
        <DataArray type="Float32" Name="uz" format="ascii" RangeMin="-0.1190348193" RangeMax="0.39962798357">
          0.049455545843 0.055331632495 0.052437596023 0.081481851637 0.11782538146 0.11175567657
          0.12144830823 0.053445063531 0.061067420989 0.068709738553 0.086267001927 0.13514378667
          0.12277023494 0.11261601001 0.044295080006 0.058392286301 0.10737323761 0.099493473768
          0.063920758665 0.093773432076 0.12510845065 0.068429552019 0.13349823654 0.098251335323
          0.077277719975 0.047997578979 0.083427801728 0.17169810832 0.23103936017 0.24380454421
          0.21359573305 0.24590092897 0.27307292819 0.16809782386 0.18847230077 0.11746133119
          0.15829718113 0.24207384884 0.31980636716 0.27697616816 0.22312168777 0.28131824732
          0.26815056801 0.26522710919 0.22342142463 0.21854135394 0.22021313012 0.17491865158
          0.17487022281 0.33575552702 0.31599247456 0.19317807257 0.16618183255 0.13061834872
          0.12905547023 0.10197039694 0.12578560412 0.30666047335 0.31254124641 0.13070100546
          0.2141828686 0.21182639897 0.150054425 0.082562975585 0.2596282959 0.35079315305
          0.28194466233 0.30293250084 0.21678239107 0.17840763927 0.34794411063 0.22219119966
          0.13934724033 0.086194515228 0.29478019476 0.10444588959 0.19980365038 0.18502855301
          0.14058274031 0.065586678684 0.26926901937 0.36313030124 0.27907729149 0.32504600286
          0.21426522732 0.18353718519 0.34516018629 0.24449387193 0.15245103836 0.084149897099
          0.27695086598 0.099020205438 0.1918117404 0.16795374453 0.14531858265 0.073913112283
          0.27330598235 0.35700204968 0.27078258991 0.33286756277 0.21538485587 0.19569443166
          0.32751399279 0.26352003217 0.17585074902 0.10365636647 0.2552216053 0.11073862016
          0.18842934072 0.15715281665 0.16266438365 0.10523207486 0.27353709936 0.33302977681
          0.25676178932 0.32782459259 0.21937969327 0.21528851986 0.29487645626 0.28119656444
          0.21093486249 0.14370585978 0.22731298208 0.13181826472 0.185525015 0.14824014902
          0.18618902564 0.14988645911 0.26753512025 0.29489740729 0.23575276136 0.31302833557
          0.22245618701 0.23670306802 0.24892236292 0.29626965523 0.25146648288 0.19539692998
          0.19281578064 0.16348181665 0.18736240268 0.14777955413 0.21419158578 0.20260742307
          0.25661754608 0.24937692285 0.21389244497 0.28820815682 0.2257552743 0.2566729784
          0.20126518607 0.3030603528 0.2888213098 0.25023317337 0.16254423559 0.20406965911
          0.19574165344 0.16178077459 0.24198928475 0.25549399853 0.24145264924 0.20302395523
          0.19556635618 0.25410860777 0.22895754874 0.26997762918 0.16132776439 0.29552340508
          0.3118250668 0.29633998871 0.14555366337 0.24670563638 0.21091334522 0.18927676976
          0.26493382454 0.29837504029 0.22446060181 0.16514453292 0.18568077683 0.21668404341
          0.23176759481 0.2732501328 0.13878214359 0.27433377504 0.31577330828 0.32468217611
          0.14816062152 0.29064404964 0.23160980642 0.22892300785 0.28175348043 0.33027896285
          0.20581014454 0.13811393082 0.18467786908 0.17788881063 0.23370344937 0.26539558172
          0.13483789563 0.23865540326 0.29769006371 0.33253473043 0.16950565577 0.33519735932
          0.25626018643 0.27654510736 0.29607024789 0.35613673925 0.18727359176 0.11761161685
          0.18942044675 0.13795189559 0.23652143776 0.25294569135 0.14223529398 0.19597187638
          0.26944863796 0.33077451587 0.20302210748 0.37217181921 0.27893030643 0.31815779209