<VTKFile type="UnstructuredGrid" version="1.0" byte_order="LittleEndian" header_type="UInt64">
  <UnstructuredGrid>
    <Piece NumberOfPoints="791" NumberOfCells="973">
      <PointData>
        <DataArray type="Float32" Name="ux" format="ascii" RangeMin="-0.54280126095" RangeMax="0.78025382757">
          0.12891680002 0.20985752344 0.086670748889 0.11646003276 0.12788388133 0.08900488168
          0.20764361322 0.24221342802 0.3699516654 0.33311712742 0.25540071726 0.36353731155
          0.23984338343 0.33117637038 -0.0098955649883 0.034611225128 -0.0065232804045 0.03560013324
          0.27563801408 0.36743196845 0.27178251743 0.38396778703 0.37655565143 -0.041336238384
          -0.0061075990088 -0.048654489219 0.18664640188 0.032013677061 0.13750880957 0.17315077782
          0.048805516213 0.15000410378 0.18363659084 0.0093845427036 0.027818545699 -0.083003498614
          -0.060849063098 0.13761633635 0.28757736087 0.21642695367 0.15064783394 0.29356426001
          0.22569973767 0.17356260121 0.18505808711 0.1019994244 0.11660224199 0.0091789131984
          0.028157105669 0.3304810524 0.33462181687 0.031396560371 0.049824655056 -0.083835229278
          -0.060418982059 -0.12750485539 -0.10281465203 0.28681322932 0.29287829995 0.027608793229
          0.13816045225 0.17504103482 0.0043453169055 -0.092287361622 0.13834939897 0.29569616914
          0.22102515399 0.17581184208 0.1011762023 0.0039286771789 0.340713799 0.026736965403
          -0.093613989651 -0.1388399601 0.29434221983 0.027998231351 0.14356860518 0.18174052238
          0.003887822153 -0.096854247153 0.14392888546 0.30880528688 0.23041567206 0.1829354614
          0.10505968332 0.0034240891691 0.3558576405 0.026900906116 -0.098697006702 -0.14573229849
          0.30700922012 0.024448744953 0.14465682209 0.18441875279 -0.00048880127724 -0.10514021665
          0.14508423209 0.31602543592 0.23485428095 0.18552839756 0.10464891046 -0.00082272046711
          0.36505743861 0.023738354445 -0.10670179874 -0.1554056257 0.31445902586 0.01846733503
          0.14295119047 0.18419374526 -0.0073519251309 -0.115909338 0.14329376817 0.31992164254
          0.23608025908 0.18514566123 0.10155331343 -0.0076237171888 0.37045621872 0.017985036597
          -0.11706679314 -0.16791315377 0.31858184934 0.01194870472 0.1406339556 0.18334639072
          -0.014467372559 -0.12658676505 0.14114443958 0.32369428873 0.23714311421 0.18449917436
          0.097963415086 -0.014490270987 0.37644800544 0.011966268532 -0.12726999819 -0.17990225554
          0.32260879874 0.0041213664226 0.13821478188 0.18243467808 -0.023172419518 -0.13983978331
          0.13843518496 0.32826852798 0.23844709992 0.1830483973 0.093694083393 -0.023257909343
          0.3834875524 0.0040528606623 -0.14029410481 -0.1950686276 0.32756823301 -0.013227657415
          0.12679748237 0.17287774384 -0.041433513165 -0.16319397092 0.12715867162 0.32463029027
          0.23126128316 0.17362824082 0.080498889089 -0.041325651109 0.38212245703 -0.012756691314
          -0.16313029826 -0.22040399909 0.32401031256 -0.04088088125 0.10426419228 0.15231049061
          -0.070228591561 -0.19676856697 0.10443989187 0.3087195456 0.21219491959 0.15267187357
          0.056199494749 -0.069908574224 0.36841082573 -0.039938304573 -0.19590722024 -0.2558889091
          0.3086104095 -0.071292795241 0.078035250306 0.1277769655 -0.10158822685 -0.23192183673
          0.07820057869 0.2878421247 0.18900032341 0.12773026526 0.02851995267 -0.10104365647
          0.3495593071 -0.069843783975 -0.23018878698 -0.29231354594 0.28855130076 -0.098282955587
          0.054452158511 0.10540799052 -0.12895810604 -0.26232290268 0.054439481348 0.26765394211
          0.16747012734 0.10452596843 0.0038023381494 -0.12822186947 0.33112895489 -0.096442982554
          -0.25982484221 -0.32359153032 0.26955845952 -0.12610110641 0.030033731833 0.08223516494
          -0.15735547245 -0.29382932186 0.030070336536 0.24769632518 0.14549843967 0.081207811832
          -0.021561466157 -0.15637898445 0.31268256903 -0.12367583811 -0.29071879387 -0.35621961951
          0.24996455014 -0.15423657 0.0054817688651 0.059247713536 -0.18677029014 -0.32650235295
          0.0053012324497 0.22851736844 0.12372968346 0.057962797582 -0.04763289541 -0.18583801389
          0.29506278038 -0.15234357119 -0.32375305891 -0.39090198278 0.23094822466 -0.17426171899
          -0.012938958593 0.041630595922 -0.20779721439 -0.34901443124 -0.013597875834 0.21278530359
          0.1064774245 0.039906878024 -0.066964909434 -0.20738041401 0.27984434366 -0.17349502444
          -0.3472032845 -0.41477265954 0.21498909593 -0.18127213418 -0.020491816103 0.033898003399
          -0.21483588219 -0.35568252206 -0.020535876974 0.20544224977 0.098878547549 0.033307667822
          -0.074279569089 -0.21433931589 0.27174007893 -0.18012958765 -0.35396656394 -0.42156630754
          0.20675867796 -0.16995733976 -0.0093664536253 0.045129850507 -0.20370864868 -0.34453481436
          -0.0093171251938 0.21687455475 0.11004582047 0.044786579907 -0.063119202852 -0.20321078598
          0.28291836381 -0.16882286966 -0.3432533443 -0.41086214781 0.21775849164 -0.13447247446
          0.027003852651 0.081705614924 -0.16852988303 -0.31012940407 0.027009382844 0.25489911437
          0.14722502232 0.081441447139 -0.027115074918 -0.16825908422 0.32124450803 -0.13383929431
          -0.30928036571 -0.37696304917 0.25554564595 -0.078991644084 0.08440425247 0.13934896886
          -0.11302208155 -0.25596868992 0.084324933589 0.31488725543 0.20603050292 0.13906264305
          0.029717169702 -0.11297059059 0.38207957149 -0.078779816628 -0.25559064746 -0.32339647412
          0.31518405676 -0.013334417716 0.15020348132 0.20475406945 -0.047083713114 -0.18987120688
          0.1504252553 0.38134676218 0.2722183466 0.20507012308 0.095716565847 -0.046940695494
          0.44885781407 -0.013054657727 -0.18979802728 -0.25746923685 0.38134035468 0.092165328562
          0.18460802734 0.22274947166 0.064712971449 -0.017037522048 0.17470483482 0.31133174896
          0.25222986937 0.20248278975 0.14702707529 0.058636222035 0.35723549128 0.072128906846
          -0.029689121991 -0.063711449504 0.32328540087 0.19076490402 0.32646009326 0.21458564699
          0.16729781032 0.076808355749 0.084198385477 -0.013483174145 -0.004411984235 0.12816917896
          0.17248788476 -0.055430371314 0.084455311298 0.13158996403 -0.029945937917 -0.083273716271
          -0.14574632049 -0.20572957397 0.12788303196 0.30907440186 0.22490537167 0.08434804529
          0.27804794908 0.18741582334 0.17009298503 0.13026407361 0.084592908621 0.038206767291
          -0.02789766714 -0.081917345524 0.36529222131 0.33647623658 0.00067535397829 -0.05180696398
          -0.1389066577 -0.20100031793 -0.19609464705 -0.2606690228 0.31409534812 0.28135854006
          -0.096835531294 0.050012454391 0.099374517798 -0.12649707496 -0.25476318598 0.049818839878
          0.25451591611 0.15842925012 0.098301462829 0.001123536611 -0.12546698749 0.31550630927
          -0.094294443727 -0.2513346076 -0.31325951219 0.25689336658 -0.12819419801 0.025371741503
          0.07702729851 -0.15997846425 -0.29424017668 0.025322595611 0.24138297141 0.13952462375
          0.076629728079 -0.025896973908 -0.15961970389 0.30465257168 -0.12734892964 -0.29296419024
          -0.35701933503 0.24221237004 -0.14992760122 0.010742350481 0.064433902502 -0.18334646523
          -0.32382470369 0.010829947889 0.23786494136 0.1304846406 0.064824014902 -0.042863432318
          -0.18318574131 0.3038726151 -0.14948877692 -0.32350113988 -0.39025557041 0.23776032031
          -0.16382479668 0.0042054676451 0.060235790908 -0.19852252305 -0.34528577328 0.0045504011214
          0.24235190451 0.12975355983 0.060885917395 -0.051709134132 -0.1984449029 0.31132829189
          -0.16372343898 -0.34552940726 -0.41484627128 0.241688326 -0.1730620563 0.00096336909337
          0.05860908702 -0.20904579759 -0.36082619429 0.0015034562675 0.24876362085 0.13142552972
          0.060069106519 -0.056852366775 -0.20939275622 0.31993341446 -0.17356997728 -0.36219835281
          -0.4333139956 0.2469817996 -0.18506154418 -0.0058679552749 0.053374633193 -0.22227543592
          -0.37851116061 -0.0050159972161 0.25049000978 0.12884792686 0.055675100535 -0.065422922373
          -0.22281627357 0.32324042916 -0.18613339961 -0.38097953796 -0.45387551188 0.24724590778
          -0.20029655099 -0.016985880211 0.04341141507 -0.23869086802 -0.39853683114 -0.015818495303
          0.24642728269 0.12110822648 0.046795058995 -0.077967531979 -0.23950992525 0.32019197941
          -0.20163887739 -0.40200945735 -0.4764213264 0.24196322262 -0.21328321099 -0.02695626393
          0.034529235214 -0.25294035673 -0.41554361582 -0.025710571557 0.24277371168 0.11410678178
          0.03880911693 -0.089069344103 -0.25414308906 0.3171466887 -0.21584445238 -0.42049884796
          -0.49569529295 0.23667748272 -0.2215526551 -0.03320100531 0.028401074931 -0.26155409217
          -0.42565104365 -0.031497646123 0.24060730636 0.10975550115 0.033846653998 -0.095889754593
          -0.26303908229 0.31549414992 -0.22460156679 -0.432007581 -0.5074659586 0.23309226334
          -0.23047678173 -0.041186444461 0.020505968481 -0.27064952254 -0.43535453081 -0.039371114224
          0.23454621434 0.10263110697 0.026340765879 -0.10424369574 -0.2723480165 0.30944794416
          -0.23397901654 -0.44235444069 -0.51775026321 0.22630941868 -0.24357071519 -0.054171193391
          0.0081460000947 -0.28423836827 -0.44928583503 -0.052453611046 0.22193986177 0.089924000204
          0.013633132912 -0.11736016721 -0.2858723402 0.29714989662 -0.24692609906 -0.45600190759
          -0.5318647027 0.21424682438 -0.25293141603 -0.063436441123 -0.00019460900512 -0.29428067803
          -0.46000498533 -0.062234014273 0.21173399687 0.080241017044 0.0040200040676 -0.12717749178
          -0.2958407104 0.28741550446 -0.25627714396 -0.46601751447 -0.54280126095 0.20544163883
          -0.24369820952 -0.053227886558 0.010800830089 -0.28537762165 -0.45238119364 -0.0522444956
          0.22157326341 0.090402729809 0.01407583151 -0.11740083992 -0.28638955951 0.29787436128
          -0.24606306851 -0.45670458674 -0.53503721952 0.21691292524 -0.20315060019 -0.012125084177
          0.052526902407 -0.24456259608 -0.41220805049 -0.01140532922 0.26146417856 0.13128952682
          0.054600294679 -0.076351292431 -0.24514631927 0.3384129703 -0.20417124033 -0.41448754072
          -0.49374622107 0.25867813826 -0.12475722283 0.065781511366 0.13027411699 -0.1653907299
          -0.33248323202 0.066349104047 0.33704602718 0.20841407776 0.13142558932 0.001833226881
          -0.16556367278 0.41452300549 -0.12482037395 -0.33332154155 -0.41266259551 0.33572843671
          -0.016792690381 0.17419661582 0.23838077486 -0.056810516864 -0.22387744486 0.17458286881
          0.4449030757 0.31681263447 0.23921041191 0.11042484641 -0.056787393987 0.52287727594
          -0.016468819231 -0.22409877181 -0.30332940817 0.44423618913 0.10788906366 0.29996398091
          0.3640717268 0.068007282913 -0.099685333669 0.29994246364 0.57104045153 0.44295340776
          0.36408850551 0.2358982712 0.068075925112 0.6499581933 0.10785917193 -0.099693313241
          -0.17912590504 0.57106184959 0.23648896813 0.42909792066 0.49333682656 0.19680245221
          0.028815912083 0.42909449339 0.70082449913 0.57255625725 0.49326202273 0.36482197046
          0.19686508179 0.78025382757 0.23656876385 0.028819531202 -0.050642073154 0.70098996162
          0.079933546484 0.18664772809 0.23426558077 0.04423186928 -0.05142980814 0.16969452798
          0.32977834344 0.26398712397 0.19931222498 0.13970634341 0.03431429714 0.38849562407
          0.046895675361 -0.070770449936 -0.10859124362 0.35211727023 0.19039011002 0.33071550727
          0.21369403601 0.16721336544 0.073027320206 0.07820186764 -0.021981567144 0.31044200063
          0.34029698372 0.31195881963 0.23698218167 0.24894668162 0.23622214794 0.19267946482
          0.14602258801 0.13682559133 0.074587419629 0.076343014836 0.048167679459 0.14723163843
          0.25476050377 0.27549937367 0.25434410572 0.19838917255 0.20767380297 0.19854480028
          0.16470880806 0.12956096232 0.12173692882 0.074467048049 0.074142098427 0.053332909942
          0.12930670381 0.18220841885 0.19725741446 0.1810631305 0.14053215086 0.14716441929
          0.14105930924 0.11574799567 0.090909354389 0.084390491247 0.050759114325 0.049376629293
          0.034636326134 0.090042181313 0.10726007819 0.11620858312 0.1050471887 0.079251244664
          0.083360649645 0.0801878497 0.062630921602 0.047132439911 0.041775271297 0.020296659321
          0.017582062632 0.0086302794516 0.045480616391 0.042250491679 0.044481903315 0.0378498137
          0.027722608298 0.029037395492 0.02975426428 0.019057694823 0.014020597562 0.0089821275324
          0.00045412927284 -0.0042611449026 -0.007242099382 0.011233963072 0 0
          0 0 0 0 0 0
          0 0 0 0 0
        </DataArray>
        <DataArray type="Float32" Name="uy" format="ascii" RangeMin="-1.3397539854" RangeMax="1.8027831316">
          0.73793661594 0.74509197474 0.7419552803 0.5562210083 0.38686007261 0.42918565869
          0.41481432319 0.73800158501 0.74750584364 0.67364740372 0.55635291338 0.40489149094
          0.38669928908 0.45533066988 0.74510735273 0.67271566391 0.40544235706 0.45507276058
          0.73621505499 0.57560425997 0.45072430372 0.73558074236 0.45035618544 0.45118567348
          0.57482111454 0.73510056734 0.55354171991 -0.12480533868 -0.015696872026 -0.12414392084
          -0.16232062876 -0.05777740851 -0.1615884155 0.025513231754 -0.01842311956 -0.042266156524
          -0.083315841854 0.20153810084 0.22646543384 0.092710420489 0.14994117618 0.17380924523
          0.046071983874 0.31028357148 0.25330555439 0.092868335545 0.046093836427 0.1601652205
          0.11036588997 0.092354342341 0.045935042202 0.3109665215 0.25410273671 0.22761335969
          0.17480893433 0.092426255345 0.045669328421 -0.041295219213 -0.082080133259 -0.098746962845
          0.015140898526 -0.098536252975 0.058529920876 -0.012276630849 0.24311062694 0.26925784349
          0.12873613834 0.3573487103 0.12910661101 0.19953578711 0.12807783484 0.35763436556
          0.27002176642 0.12849450111 -0.012185642496 -0.091003194451 0.027779065073 -0.091112345457
          0.073126137257 -0.000918607926 0.26656991243 0.29420316219 0.14670261741 0.38646149635
          0.14700140059 0.22072967887 0.14595629275 0.38627406955 0.2941596508 0.14600512385
          -0.0010402494809 -0.10471463948 0.018583646044 -0.1048194319 0.065392225981 -0.011246834882
          0.26572456956 0.29462936521 0.14190603793 0.38979557157 0.14197428524 0.21804954112
          0.14135242999 0.38952216506 0.29394206405 0.14075894654 -0.011077304371 -0.13748262823
          -0.0097668813542 -0.13731500506 0.038771823049 -0.040524885058 0.24594990909 0.27554434538
          0.11775849015 0.37420678139 0.11793988943 0.19689713418 0.11711599678 0.37434729934
          0.27590680122 0.11715805531 -0.04032145068 -0.18726567924 -0.055340889841 -0.18747065961
          -0.0049859452993 -0.086727179587 0.20932111144 0.24022866786 0.076760582626 0.34180954099
          0.076905943453 0.15847109258 0.076366856694 0.3417301178 0.23994137347 0.076198361814
          -0.087048925459 -0.25227975845 -0.11527606845 -0.25299161673 -0.062602490187 -0.14739340544
          0.16017769277 0.19275835156 0.022262787446 0.29816830158 0.022354539484 0.10735476762
          0.021926013753 0.29772514105 0.19208262861 0.022067481652 -0.14839367568 -0.3240596354
          -0.18142178655 -0.32472333312 -0.12651397288 -0.21462093294 0.10495954007 0.13878241181
          -0.038427390158 0.24842703342 -0.038209427148 0.050177354366 -0.038715846837 0.2481469214
          0.13847091794 -0.038187369704 -0.21576783061 -0.39959096909 -0.25136291981 -0.40001040697
          -0.19409905374 -0.28572836518 0.045791905373 0.080646067858 -0.10287015885 0.19398899376
          -0.10261809826 -0.010685526766 -0.10292486846 0.19410988688 0.081189699471 -0.101998128
          -0.28667962551 -0.47267153859 -0.32007944584 -0.47303637862 -0.2612824738 -0.35514676571
          -0.014991324395 0.021164847538 -0.16740562022 0.13727526367 -0.16738146544 -0.072726756334
          -0.16704975069 0.13751848042 0.021893547848 -0.16601502895 -0.35601693392 -0.52685219049
          -0.37082526088 -0.52710753679 -0.31092366576 -0.40653949976 -0.059576183558 -0.022251404822
          -0.21473580599 0.095385342836 -0.214882195 -0.11853850633 -0.21377274394 0.095671497285
          -0.021758724004 -0.21327993274 -0.4068941474 -0.55107468367 -0.3913846612 -0.55109536648
          -0.33023881912 -0.42802765965 -0.073010787368 -0.034687858075 -0.23159092665 0.085426531732
          -0.23194906116 -0.13329195976 -0.23037181795 0.085652627051 -0.034166350961 -0.23024459183
          -0.42796292901 -0.54102391005 -0.37706133723 -0.54071450233 -0.31440746784 -0.41499096155
          -0.050656627864 -0.011452806182 -0.21305523813 0.11171585321 -0.21363811195 -0.11238535494
          -0.21205025911 0.11207060516 -0.011003623717 -0.21202991903 -0.41451278329 -0.49227973819
          -0.32629489899 -0.49172446132 -0.26305156946 -0.36508026719 0.0037481873296 0.042985189706
          -0.16075994074 0.16814248264 -0.1610609144 -0.05868511647 -0.1599714458 0.1688182056
          0.044062968343 -0.15967662632 -0.3641757369 -0.41238376498 -0.24665296078 -0.41162621975
          -0.18376123905 -0.28591609001 0.082641355693 0.12128660828 -0.081688001752 0.24657930434
          -0.081861302257 0.020165223628 -0.081011459231 0.24751478434 0.12285456806 -0.081023961306
          -0.28462561965 -0.31832835078 -0.15232898295 -0.317296803 -0.089550040662 -0.19195741415
          0.17753283679 0.21605744958 0.012852670625 0.3418328464 0.012748098001 0.11505144835
          0.013251881115 0.34297549725 0.21787297726 0.013312386349 -0.19035442173 -0.21435448527
          -0.047532517463 -0.21335235238 0.015676796436 -0.08737488091 0.28426900506 0.32303538918
          0.11850787699 0.44971987605 0.1183918789 0.22139437497 0.11888686568 0.45080512762
          0.32475784421 0.11895500869 -0.08589117974 -0.10105627775 0.067042328417 -0.10068047047
          0.13095888495 0.027259856462 0.40229329467 0.44154947996 0.23468846083 0.56964874268
          0.23468464613 0.33843156695 0.23474510014 0.57024919987 0.44252318144 0.23497721553
          0.027751795948 0.018122315407 0.18633235991 0.018193313852 0.25049781799 0.14645436406
          0.52271622419 0.56240981817 0.35461497307 0.69070529938 0.35460534692 0.45854240656
          0.35475465655 0.69076573849 0.56245100498 0.35447603464 0.14666548371 -0.039525974542
          0.046867284924 -0.039277717471 0.079719990492 0.026150032878 0.22022396326 0.24023117125
          0.13328154385 0.30710145831 0.13344363868 0.18704400957 0.13299235702 0.30738937855
          0.24066048861 0.13288854063 0.026543240994 0.48694857955 0.49547854066 0.5231705308
          0.45113834739 0.4734813869 0.52347642183 0.49623355269 1.4736415148 1.3375816345
          1.4738769531 1.3238592148 1.1812567711 1.3238509893 1.2852326632 1.1263259649
          1.3678636551 1.2130776644 1.0701605082 1.0372946262 1.202378273 0.89771223068
          0.86338084936 1.0386158228 0.93854188919 0.75705087185 1.202892065 1.0390548706
          1.1197856665 0.95084029436 1.2007580996 1.0369243622 0.93780404329 0.75622159243
          1.0358916521 0.86189353466 1.1995292902 1.036085248 1.3684113026 1.2132657766
          1.1191974878 0.96886271238 1.1191676855 0.91121453047 1.0031173229 0.67016994953
          0.63448756933 0.81893652678 0.52165150642 0.81916368008 0.72640514374 0.81787502766
          0.52101933956 0.63324189186 0.81700539589 1.003281951 0.87736994028 0.71970176697
          0.87711149454 0.65933436155 0.75648540258 0.40545764565 0.36842793226 0.56241297722
          0.24862401187 0.5624550581 0.46496030688 0.56193417311 0.24811276793 0.36719283462
          0.56123000383 0.75633859634 0.62286931276 0.45764526725 0.62258577347 0.39460587502
          0.49679750204 0.12752236426 0.088809929788 0.29258677363 -0.037318989635 0.29249963164
          0.1903218925 0.29266017675 -0.037832144648 0.087963469326 0.29227185249 0.4964762032
          0.36767187715 0.19495089352 0.36755955219 0.12913265824 0.23607739806 -0.15073105693
          -0.19105505943 0.022265650332 -0.32334560156 0.02219231613 -0.084615528584 0.022565504536
          -0.32352790236 -0.19137230515 0.022606991231 0.23586076498 0.11533805728 -0.063232220709
          0.11560921371 -0.13149434328 -0.020725524053 -0.42168259621 -0.46351611614 -0.24197940528
          -0.60136026144 -0.24237729609 -0.35293078423 -0.24135273695 -0.60115098953 -0.46334385872
          -0.24137617648 -0.020201928914 -0.11763352156 -0.30145218968 -0.11732042581 -0.37176790833
          -0.25736626983 -0.67121016979 -0.71381175518 -0.48551130295 -0.85674184561 -0.48612704873
          -0.60018473864 -0.48411118984 -0.85667198896 -0.7140250206 -0.48478132486 -0.25662615895
          -0.31712004542 -0.50555419922 -0.31698006392 -0.57748878002 -0.45980161428 -0.88449698687
          -0.92751735449 -0.69382590055 -1.0748747587 -0.6947542429 -0.81182670593 -0.69184619188
          -1.0751315355 -0.92839109898 -0.69268763065 -0.45914685726 -0.46845921874 -0.66025406122
          -0.4684548378 -0.73358976841 -0.61324727535 -1.0467242002 -1.0898348093 -0.85169374943
          -1.2412276268 -0.85307270288 -0.97256100178 -0.84885436296 -1.2416983843 -1.0913015604
          -0.8505140543 -0.61239773035 -0.55305713415 -0.74679541588 -0.55284976959 -0.8206756711
          -0.69861078262 -1.1383663416 -1.1818515062 -0.94051504135 -1.3357858658 -0.94195199013
          -1.0627729893 -0.93722558022 -1.3360176086 -1.1827503443 -0.93826532364 -0.69795644283
          -0.5531154871 -0.74761128426 -0.55274903774 -0.82188892365 -0.69934177399 -1.1409597397
          -1.1845059395 -0.94202423096 -1.3396615982 -0.94360166788 -1.0649924278 -0.93835604191
          -1.3397539854 -1.185290575 -0.93972170353 -0.69808763266 -0.45717421174 -0.65246784687
          -0.45711231232 -0.7267113924 -0.60361659527 -1.0465558767 -1.0903190374 -0.84759783745
          -1.245395422 -0.84888118505 -0.97038918734 -0.8441106081 -1.2456816435 -1.0910894871
          -0.84484863281 -0.60328149796 -0.26682525873 -0.46333628893 -0.26770991087 -0.53754144907
          -0.41393464804 -0.85805529356 -0.90182238817 -0.65904080868 -1.0567476749 -0.66007483006
          -0.78206831217 -0.65616059303 -1.057570219 -0.90356135368 -0.65651869774 -0.41501712799
          0.0031533830334 -0.19461838901 0.0016683823196 -0.26914957166 -0.14503596723 -0.59048575163
          -0.63444751501 -0.39133378863 -0.7890124321 -0.39205697179 -0.51475650072 -0.3892095685
          -0.79071229696 -0.63748973608 -0.38974401355 -0.14731580019 0.32768946886 0.12955592573
          0.32600921392 0.054917547852 0.17871019244 -0.26556229591 -0.31008860469 -0.067286796868
          -0.4633500874 -0.067799329758 -0.1902268827 -0.066030062735 -0.46515679359 -0.31315466762
          -0.0662503317 0.17599907517 0.68143874407 0.48411607742 0.68008327484 0.40969124436
          0.53225696087 0.091037631035 0.045956879854 0.28782838583 -0.10540797561 0.28765255213
          0.16593666375 0.28840243816 -0.10671388358 0.043767567724 0.28858113289 0.53010708094
          1.0510439873 0.85423320532 1.050268054 0.77940571308 0.90138047934 0.46155455709
          0.41589602828 0.65795874596 0.26527819037 0.65792036057 0.53628945351 0.65821051598
          0.26433375478 0.41439208388 0.6581440568 0.9002366662 1.4277770519 1.2304461002
          1.4274039268 1.1552629471 1.2774488926 0.83649134636 0.79030704498 1.0334413052
          0.63967692852 1.0335528851 0.91163593531 1.0334485769 0.63923722506 0.78960943222
          1.0335222483 1.2766686678 1.8027831316 1.6050755978 1.8026208878 1.5298224688
          1.6520675421 1.2100032568 1.1632509232 1.4073349237 1.0125073195 1.407625556
          1.2856112719 1.4072314501 1.0125650167 1.1635280848 1.4078348875 1.6514481306
          1.3361849785 1.2306135893 1.3368498087 1.1902159452 1.2545808554 1.0245130062
          0.99900782108 1.1264481544 0.92250484228 1.1266564131 1.0631252527 1.1257278919
          0.92248493433 0.99893760681 1.1251682043 1.2550303936 0.72228968143 0.71921819448
          0.70689076185 0.73580300808 0.7277162075 0.70756620169 0.71987444162 0.36249810457
          0.44901606441 0.53517478704 0.58752739429 0.44884070754 0.31059929729 0.44875377417
          0.58589321375 0.44847247005 0.53254634142 0.3640550375 0.44837236404 0.3116210103
          0.25588619709 0.32147282362 0.38725686073 0.42733490467 0.32145234942 0.21540358663
          0.32139861584 0.42677342892 0.32135370374 0.38605451584 0.25661233068 0.32122069597
          0.2158305347 0.15102918446 0.19910891354 0.2465312928 0.2752533257 0.19833911955
          0.12080779672 0.19812726974 0.2749800384 0.19829437137 0.2462195605 0.15115615726
          0.19908683002 0.12092716247 0.064279794693 0.096007689834 0.12665143609 0.14500997961
          0.09489159286 0.043169487268 0.094783037901 0.14553067088 0.094984777272 0.12761603296
          0.063880302012 0.096286080778 0.042901687324 0.013204661198 0.028268883005 0.041142337024
          0.048643317074 0.025967754424 0.0005995776155 0.025592308491 0.050282802433 0.02609372139
          0.043896120042 0.010822650976 0.028579754755 -0.00086330901831 0 0
          0 0 0 0 0 0
          0 0 0 0 0
        </DataArray>
        <DataArray type="Float32" Name="uz" format="ascii" RangeMin="-0.32760176063" RangeMax="0.1451022625">
          -0.0016973111778 -0.016891131178 -0.00042008276796 0.014090719633 0.023593408987 0.02754829824
          0.0071236067452 -0.021982688457 -0.039499241859 -0.033708814532 -0.013052242808 -0.016257936135
          0.0020532603376 -0.020112415776 0.012397523038 0.01964760758 0.04524275288 0.036469534039
          -0.024342790246 -0.031796809286 -0.0044285790063 -0.037915904075 -0.020556045696 0.04599448666
          0.03301884234 0.014689574018 0.00068645441206 0.064880207181 0.052436266094 0.050819851458
          0.07319303602 0.054740745574 0.056113563478 0.064122885466 0.067724302411 0.074712187052
          0.082741074264 0.047913085669 0.032507721335 0.042435191572 0.04321718961 0.023954777047
          0.039806783199 0.042229421437 0.032832127064 0.053677462041 0.053234346211 0.061508964747
          0.060596331954 0.030856475234 0.026054197922 0.056563477963 0.049666538835 0.069822154939
          0.067975401878 0.076681017876 0.080659672618 0.03792109713 0.038324769586 0.058237977326
          0.05166355893 0.04882895574 0.06007719785 0.065978877246 0.051844175905 0.04211428389
          0.046580273658 0.049900177866 0.054088160396 0.060265734792 0.038980036974 0.059410180897
          0.066979177296 0.069325231016 0.041559200734 0.054902531207 0.053606051952 0.052543848753
          0.0558373034 0.056990955025 0.054053168744 0.051840510219 0.052629090846 0.05393525213
          0.05449289456 0.056019365788 0.050684336573 0.056001793593 0.057573635131 0.058015845716
          0.050919469446 0.053215421736 0.056395210326 0.058270256966 0.051541026682 0.048572428524
          0.054914630949 0.060290619731 0.058550458401 0.055565826595 0.054409891367 0.050553586334
          0.062736235559 0.050302792341 0.046743124723 0.046098917723 0.061895273626 0.050667565316
          0.058054264635 0.061913788319 0.047455925494 0.040702562779 0.055963233113 0.067818805575
          0.063362173736 0.057837087661 0.054163429886 0.046180464327 0.072600863874 0.046569824219
          0.038226675242 0.035987898707 0.070325061679 0.048478398472 0.059868909419 0.065012775362
          0.044690094888 0.034312158823 0.057870600373 0.075111493468 0.068030565977 0.061104577035
          0.054796226323 0.043391037732 0.081496976316 0.044559873641 0.031920943409 0.028015429154
          0.077626496553 0.050306990743 0.062868438661 0.070123337209 0.044034268707 0.032309573144
          0.058012969792 0.078644625843 0.071460321546 0.060889989138 0.055522494018 0.041023232043
          0.087672621012 0.040925525129 0.026476953179 0.023224379867 0.084388263524 0.055785510689
          0.066981248558 0.077537819743 0.045464459807 0.034403391182 0.057085890323 0.078836433589
          0.07412763685 0.057444259524 0.056543383747 0.039312262088 0.091701000929 0.03574918583
          0.022050982341 0.021483615041 0.091147273779 0.061259806156 0.070841662586 0.083543635905
          0.048452071846 0.038095861673 0.057466812432 0.079309038818 0.076435618103 0.056120868772
          0.058637473732 0.040132284164 0.094657994807 0.03390693292 0.021010661498 0.022780690342
          0.096215568483 0.065531812608 0.072723984718 0.084664054215 0.053257402033 0.044753096998
          0.058800276369 0.077558778226 0.076280348003 0.056772433221 0.061156757176 0.044530265033
          0.092142678797 0.037502676249 0.027322120965 0.030288869515 0.094749510288 0.071048304439
          0.072581782937 0.08204010129 0.060180034488 0.05680288747 0.059069275856 0.069237492979
          0.071852177382 0.055228129029 0.063118994236 0.051808126271 0.080962881446 0.04418913275
          0.040306456387 0.045178178698 0.085809655488 0.078721292317 0.071454502642 0.078407347202
          0.069137826562 0.073634937406 0.057874318212 0.055890791118 0.064456552267 0.050904687494
          0.064745336771 0.060734942555 0.064271062613 0.051244337112 0.056569118053 0.065135896206
          0.072855815291 0.083674192429 0.068528905511 0.071437440813 0.07739418 0.089198827744
          0.057091459632 0.042646735907 0.056099627167 0.047789458185 0.065935917199 0.070268422365