<VTKFile type="UnstructuredGrid" version="1.0" byte_order="LittleEndian" header_type="UInt64">
  <UnstructuredGrid>
    <Piece NumberOfPoints="791" NumberOfCells="973">
      <PointData>
        <DataArray type="Float32" Name="ux" format="ascii" RangeMin="-0.33463945985" RangeMax="0.92206394672">
          -0.1003703773 -0.11382558197 -0.10441262275 -0.097716964781 -0.099682457745 -0.10410536081
          -0.11350121349 -0.11115575582 -0.12776692212 -0.12053880095 -0.11094931513 -0.1270083487
          -0.11047427356 -0.12033185363 -0.091665677726 -0.092321157455 -0.091044440866 -0.092004604638
          -0.12569025159 -0.12695819139 -0.12584705651 -0.13600558043 -0.13603052497 -0.095128469169
          -0.091211006045 -0.095060057938 -0.10364680737 -0.15904648602 -0.16783252358 -0.17053100467
          -0.14345896244 -0.15215852857 -0.15502992272 -0.15744179487 -0.14162294567 -0.14997124672
          -0.13412626088 -0.16779792309 -0.18025663495 -0.17442134023 -0.15208469331 -0.16462266445
          -0.15874730051 -0.17053499818 -0.1548705548 -0.16497896612 -0.14922270179 -0.15735892951
          -0.14148563147 -0.18396048248 -0.16834902763 -0.15880447626 -0.14299298823 -0.14969293773
          -0.13368047774 -0.1464240551 -0.13036680222 -0.18013291061 -0.16460444033 -0.16905643046
          -0.17766754329 -0.18028353155 -0.16750743985 -0.16022092104 -0.17761218548 -0.18990768492
          -0.18416890502 -0.18025481701 -0.17487561703 -0.16737121344 -0.1935826093 -0.1687104255
          -0.15984852612 -0.15672601759 -0.18976709247 -0.17163808644 -0.18009452522 -0.1825723201
          -0.17018468678 -0.16309204698 -0.18005399406 -0.19217182696 -0.18650850654 -0.1826120615
          -0.17738099396 -0.17003031075 -0.19577760994 -0.17124675214 -0.16264131665 -0.15968240798
          -0.19193400443 -0.1650364548 -0.17325049639 -0.17559967935 -0.16366951168 -0.15682689846
          -0.17323425412 -0.18501356244 -0.17949692905 -0.17568130791 -0.17064504325 -0.1635235548
          -0.18851712346 -0.16464203596 -0.15633644164 -0.15354083478 -0.18472662568 -0.14824053645
          -0.15610811114 -0.15832343698 -0.1469746083 -0.14042192698 -0.15608745813 -0.1673258841
          -0.16207404435 -0.15840524435 -0.15362480283 -0.14682525396 -0.17069017887 -0.14786463976
          -0.13995596766 -0.13728541136 -0.16705386341 -0.12076265365 -0.12842351198 -0.13056470454
          -0.11956804991 -0.11320912093 -0.12842021883 -0.13934844732 -0.13424554467 -0.13066786528
          -0.12603528798 -0.11945055425 -0.14264599979 -0.12046150118 -0.11281950772 -0.11021686345
          -0.13909807801 -0.082621924579 -0.090300224721 -0.092434093356 -0.081480205059 -0.075114957988
          -0.090345211327 -0.1011852771 -0.096119143069 -0.092565484345 -0.087944202125 -0.081411294639
          -0.10446819663 -0.08245024085 -0.074843622744 -0.07220261544 -0.10094658285 -0.03390013054
          -0.04151692614 -0.043649408966 -0.032763320953 -0.026419160888 -0.041541468352 -0.052251946181
          -0.047255638987 -0.043742481619 -0.039162248373 -0.032696124166 -0.055515497923 -0.033755224198
          -0.026208825409 -0.02355062589 -0.052068345249 0.025070568547 0.017505755648 0.015318072401
          0.026251100004 0.032590322196 0.017529264092 0.0069185663015 0.011839745566 0.015330893919
          0.019882362336 0.026308052242 0.0036423760466 0.025216855109 0.032732661813 0.035444065928
          0.0069851004519 0.09303574264 0.085474550724 0.08324238658 0.094248577952 0.10061435401
          0.085499539971 0.074963077903 0.079835683107 0.083280816674 0.087851636112 0.094272345304
          0.071675911546 0.093100354075 0.10067018121 0.10345665365 0.074942886829 0.16857364774
          0.16100978851 0.15871489048 0.16980741918 0.17620575428 0.16105614603 0.15060451627
          0.15540927649 0.1588396579 0.16340386868 0.16979402304 0.14729294181 0.16857272387
          0.17614167929 0.17901453376 0.15046411753 0.25096583366 0.24335354567 0.2410081327
          0.25222012401 0.25870004296 0.24341002107 0.23298676312 0.237764135 0.24118500948
          0.24578247964 0.25218394399 0.22966259718 0.25088500977 0.25851884484 0.26148289442
          0.23275761306 0.33927902579 0.33164981008 0.32924136519 0.34059259295 0.34712186456
          0.33169475198 0.32122474909 0.32604938745 0.32940298319 0.33410465717 0.34054034948
          0.31791308522 0.33916226029 0.34691390395 0.34995850921 0.32098022103 0.43181079626
          0.42427521944 0.4218211174 0.43320035934 0.43970519304 0.42432621121 0.41394153237
          0.41873598099 0.42199838161 0.42673301697 0.43314814568 0.41069272161 0.43171218038
          0.43951457739 0.44259017706 0.41369768977 0.5268509388 0.51943528652 0.51697480679
          0.52830076218 0.53474247456 0.5194786191 0.50919032097 0.51397114992 0.5171200633
          0.52188813686 0.52826666832 0.50604909658 0.52678388357 0.53459298611 0.53765267134
          0.50899380445 0.62284570932 0.61546653509 0.61298495531 0.62434524298 0.63077867031
          0.61551147699 0.60519969463 0.61001348495 0.61311644316 0.61793017387 0.62431812286
          0.60208857059 0.62282049656 0.63068062067 0.63374936581 0.60504174232 0.71911919117
          0.71168166399 0.70917081833 0.7206543088 0.72715616226 0.7117112875 0.7012616992
          0.70616191626 0.70925116539 0.71417534351 0.7206479907 0.69816482067 0.71910184622
          0.72709542513 0.7301774025 0.701164186 0.81517869234 0.80770999193 0.80520534515
          0.81672912836 0.82326328754 0.80773162842 0.79720336199 0.80216145515 0.80525016785
          0.81021457911 0.81672847271 0.79411393404 0.81518465281 0.82324588299 0.82634264231
          0.79716271162 0.91095292568 0.90350574255 0.90101265907 0.91249501705 0.91899782419
          0.90350455046 0.89298862219 0.89795082808 0.90102827549 0.90599185228 0.9124814868
          0.88988804817 0.91093844175 0.91898244619 0.92206394672 0.89296007156 -0.1152979508
          -0.12792415917 -0.12750443816 -0.11826678365 -0.10818532854 -0.13477577269 -0.1484837383
          -0.13815271854 -0.14121796191 -0.12833246589 -0.12248912454 -0.14798358083 -0.12899529934
          -0.1165959537 -0.10870353878 -0.13995993137 -0.12397696823 -0.1387539953 -0.13255426288
          -0.11560238898 -0.1105324477 -0.11984748393 -0.10559692234 -0.12649407983 -0.13520485163
          -0.13803951442 -0.12642484903 -0.1360707134 -0.13900206983 -0.12460608035 -0.1245521009
          -0.11714351177 -0.11632032692 -0.13515360653 -0.14812971652 -0.14196850359 -0.1361631006
          -0.15020529926 -0.14345648885 -0.13800053298 -0.13939361274 -0.13224641979 -0.13293811679
          -0.12432655692 -0.12438670546 -0.15180906653 -0.15406084061 -0.12565205991 -0.12606573105
          -0.11622219533 -0.1157110855 -0.11316373944 -0.11216080189 -0.14778335392 -0.14960333705
          -0.12167680264 -0.13193750381 -0.13521355391 -0.11954221874 -0.11070316285 -0.13198556006
          -0.14694584906 -0.13978292048 -0.1354624778 -0.12852361798 -0.11935233325 -0.1510668844
          -0.12123955786 -0.11007890105 -0.10619224608 -0.14645625651 -0.11361764371 -0.12450830638
          -0.12807840109 -0.11128316075 -0.10183415562 -0.12455310673 -0.14039851725 -0.13280457258
          -0.12828940153 -0.12085619569 -0.11112432927 -0.14478552341 -0.1132382825 -0.1012987569
          -0.097048550844 -0.13997532427 -0.10439615697 -0.1159447208 -0.11979962885 -0.10183383524
          -0.09174477309 -0.11594434828 -0.13271650672 -0.12469884008 -0.11994817108 -0.11202377826
          -0.10168052465 -0.13737462461 -0.10401295125 -0.091248579323 -0.086637429893 -0.13236388564
          -0.095644600689 -0.10790580511 -0.11205273122 -0.092911779881 -0.082171805203 -0.10791545361
          -0.12561669946 -0.11716251075 -0.11218091846 -0.10373669118 -0.09278396517 -0.13054695725
          -0.095321372151 -0.081740617752 -0.076772458851 -0.12531860173 -0.088864646852 -0.10160986334
          -0.10596063733 -0.085996523499 -0.074805609882 -0.10165041685 -0.12005822361 -0.11124803871
          -0.10611132532 -0.097279191017 -0.085888430476 -0.12517808378 -0.088604852557 -0.074415907264
          -0.069183208048 -0.11977220327 -0.08503715694 -0.098180793226 -0.10273841023 -0.08201469481
          -0.070422559977 -0.098188459873 -0.11717940122 -0.10809864849 -0.10282319039 -0.093673601747
          -0.081916473806 -0.12247446179 -0.084765337408 -0.070070363581 -0.064606003463 -0.11694402993
          -0.085331045091 -0.098898731172 -0.10362870246 -0.082198277116 -0.070203453302 -0.098859645426
          -0.11834684759 -0.10906168073 -0.10363520682 -0.094218455255 -0.082105092704 -0.12380554527
          -0.085091933608 -0.06993240118 -0.064230971038 -0.11821761727 -0.09087394923 -0.1048803702
          -0.10978078097 -0.087666839361 -0.075267970562 -0.10485015064 -0.1249236986 -0.11537545174
          -0.10975844413 -0.10008031875 -0.087603405118 -0.13059301674 -0.090702243149 -0.0750881657
          -0.069169931114 -0.12484331429 -0.10165218264 -0.11611858755 -0.12110090256 -0.098437346518
          -0.085689075291 -0.11609334499 -0.13671591878 -0.12692284584 -0.12108425796 -0.11118637025
          -0.098396547139 -0.1426076442 -0.10152816772 -0.08555623889 -0.079473011196 -0.13667158782
          -0.11642113328 -0.13128632307 -0.13635735214 -0.11319318414 -0.10014052689 -0.13123588264
          -0.15236398578 -0.14236724377 -0.13629209995 -0.12624138594 -0.11314145476 -0.15845291317
          -0.11627081782 -0.10000895709 -0.093821123242 -0.15235249698 -0.13365060091 -0.14877845347
          -0.15391977131 -0.13040696084 -0.11715202034 -0.14872655272 -0.17017762363 -0.1600548476
          -0.1538297385 -0.143675372 -0.1303768307 -0.17641200125 -0.13355398178 -0.1170880124
          -0.11081626266 -0.17022585869 -0.15249857306 -0.16783855855 -0.17302764952 -0.14923027158
          -0.13579155505 -0.16778215766 -0.18950247765 -0.17925940454 -0.17294935882 -0.16265885532
          -0.14920070767 -0.19583269954 -0.15241351724 -0.13573567569 -0.12938030064 -0.18956179917
          -0.17278446257 -0.18841972947 -0.19370724261 -0.16947767138 -0.15576195717 -0.188397035
          -0.21051049232 -0.20006848872 -0.19365499914 -0.18316505849 -0.16945935786 -0.2169457078
          -0.17273506522 -0.15573373437 -0.14923375845 -0.21054452658 -0.19447918236 -0.21039114892
          -0.21574248374 -0.19115388393 -0.1772339195 -0.21038851142 -0.23288120329 -0.22225557268
          -0.21573570371 -0.20507313311 -0.19115099311 -0.23942065239 -0.19448278844 -0.17724280059
          -0.17063856125 -0.23289236426 -0.21752044559 -0.23353384435 -0.2389036566 -0.21419660747
          -0.20019964874 -0.23355181515 -0.25614270568 -0.24547509849 -0.23890209198 -0.22819808125
          -0.21421092749 -0.26272961497 -0.21755135059 -0.20023159683 -0.19359333813 -0.25616508722
          -0.241272524 -0.2573069334 -0.2626747191 -0.23795431852 -0.22395442426 -0.25732526183
          -0.27996996045 -0.26927262545 -0.26268520951 -0.25197029114 -0.23796261847 -0.28656768799
          -0.24128690362 -0.22395305336 -0.21733117104 -0.2799692452 -0.26518836617 -0.28128236532
          -0.2866435349 -0.26187506318 -0.24783274531 -0.28127861023 -0.30396556854 -0.29326152802
          -0.28663212061 -0.27592414618 -0.26188439131 -0.31060159206 -0.26520290971 -0.24785584211
          -0.24121709168 -0.30399039388 -0.28916555643 -0.30526697636 -0.31063991785 -0.28585031629
          -0.27179485559 -0.30525997281 -0.32799249887 -0.31726050377 -0.31063118577 -0.29989555478
          -0.28584992886 -0.33463945985 -0.28916114569 -0.27178946137 -0.26515963674 -0.32799720764
          -0.11519930512 -0.12563668191 -0.12687937915 -0.11575123668 -0.10723350942 -0.12908869982
          -0.14222429693 -0.1340059489 -0.1336504519 -0.12444234639 -0.11773605645 -0.14366453886
          -0.12154709548 -0.1108661145 -0.10556452721 -0.13767305017 -0.12315637618 -0.13773943484
          -0.13077141345 -0.11544763297 -0.1099671945 -0.11806099117 -0.10443195701 -0.091411195695
          -0.093712307513 -0.091002240777 -0.084540523589 -0.085758544505 -0.084920108318 -0.08080650121
          -0.076809294522 -0.075863413513 -0.070540733635 -0.070324629545 -0.068003475666 -0.076847314835
          -0.06515443325 -0.066921189427 -0.065091952682 -0.060379229486 -0.06105806306 -0.060404691845
          -0.057363945991 -0.054428901523 -0.053649321198 -0.049556739628 -0.04953327775 -0.047702047974
          -0.054418575019 -0.04034639895 -0.041652217507 -0.040484692901 -0.037242926657 -0.037572596222
          -0.03721690923 -0.034985311329 -0.032975882292 -0.032358493656 -0.029369920492 -0.029583547264
          -0.028143225238 -0.033126357943 -0.019658669829 -0.020560814068 -0.020003709942 -0.018078312278
          -0.018039865419 -0.017913574353 -0.016422210261 -0.015237892978 -0.014744766988 -0.012729455717
          -0.013126278296 -0.012044692412 -0.015466768295 -0.0054923575372 -0.0060652783141 -0.0061553032137
          -0.0055178315379 -0.004971886985 -0.0051523493603 -0.0042447056621 -0.0039524729364 -0.0034724553116
          -0.0023142229766 -0.0030107020866 -0.0021649410482 -0.0043136458844 1.7091163554e-11 -2.1669943617e-11
          6.0363034016e-12 -3.5337802563e-12 -9.4406748044e-12 -1.147891027e-12 1.3311820179e-12 -1.2259442593e-13
          -1.1448780224e-14 0 0 0 -2.597894942e-14
        </DataArray>
        <DataArray type="Float32" Name="uy" format="ascii" RangeMin="-1.170817256" RangeMax="0.93512821198">
          0.064635239542 0.06731120497 0.068525858223 0.079647064209 0.095880627632 0.097232975066
          0.097080126405 0.064493298531 0.066061504185 0.070543400943 0.079492338002 0.097047790885
          0.095804966986 0.090121984482 0.066343314946 0.070734761655 0.097121238708 0.090341903269
          0.07030197978 0.081613250077 0.097480453551 0.070099629462 0.097522452474 0.097338728607
          0.081812575459 0.070016473532 0.079256013036 0.2075278312 0.19878381491 0.20776766539
          0.18731689453 0.17846882343 0.18744853139 0.19535553455 0.17507252097 0.20076845586
          0.18056592345 0.1808578223 0.17857761681 0.1898458153 0.16037514806 0.15812569857
          0.16943477094 0.17176657915 0.15121640265 0.18985852599 0.16947880387 0.1844548583
          0.16401256621 0.1898945123 0.16947185993 0.17211166024 0.15148474276 0.17918407917
          0.15864624083 0.19005669653 0.16972236335 0.20109252632 0.18071001768 0.2299207896
          0.22142969072 0.23024244606 0.21801975369 0.22329039872 0.20381642878 0.20153808594
          0.21266548336 0.19484439492 0.21265114844 0.207371369 0.21273127198 0.19527123868
          0.20225153863 0.21287243068 0.22377085686 0.25539240241 0.24714717269 0.25579333305
          0.24380357563 0.24891264737 0.22987511754 0.22760991752 0.2385751456 0.22101825476
          0.23855650425 0.23340633512 0.23868428171 0.22153428197 0.22846932709 0.23882000148
          0.24954104424 0.2849625349 0.2770229876 0.28541508317 0.27378407121 0.27871719003
          0.26028257608 0.25806650519 0.26872399449 0.25167605281 0.26870214939 0.26374512911
          0.26885864139 0.25224649906 0.25902929902 0.26902166009 0.27939373255 0.31944328547
          0.31188380718 0.31990233064 0.30875828862 0.31346940994 0.29585811496 0.29373553395
          0.30393797159 0.28762745857 0.3039149344 0.29916805029 0.30408671498 0.28818660975
          0.29466715455 0.3042126596 0.31418538094 0.35909864306 0.35178285837 0.35959854722
          0.3487212956 0.35324692726 0.33620578051 0.33412387967 0.34406590462 0.32821390033
          0.34403410554 0.33941635489 0.34418651462 0.32877337933 0.33503845334 0.34426379204
          0.35403877497 0.40325722098 0.39597168565 0.40376138687 0.39291346073 0.39739459753
          0.38049146533 0.3784044683 0.3882882297 0.37255445123 0.38826629519 0.38366866112
          0.38839754462 0.37309896946 0.37929499149 0.38845300674 0.3981961906 0.4504955411
          0.44325864315 0.45098382235 0.44021314383 0.44464683533 0.42791068554 0.42583680153
          0.43563082814 0.42006006837 0.43561139703 0.43103292584 0.43570834398 0.42057806253
          0.42666521668 0.43573200703 0.4454292953 0.50022852421 0.49297070503 0.5006557107
          0.48993462324 0.49435263872 0.47772195935 0.4756667614 0.48537778854 0.46996930242
          0.48535850644 0.48078516126 0.48539751768 0.47043156624 0.47640827298 0.48541048169
          0.49507635832 0.55127441883 0.54396110773 0.55163872242 0.54095894098 0.54540741444
          0.52873921394 0.52667915821 0.53634172678 0.52102714777 0.53636413813 0.53178501129
          0.53632605076 0.52143025398 0.52734744549 0.53639185429 0.5459741354 0.60229772329
          0.59493136406 0.60262173414 0.59192305803 0.59637993574 0.57974869013 0.57769906521
          0.58730691671 0.57211345434 0.58732914925 0.58275204897 0.58723926544 0.57246571779
          0.57828170061 0.58728945255 0.59688532352 0.65216600895 0.64471912384 0.65244537592
          0.64170974493 0.64618551731 0.62952286005 0.62746977806 0.63705950975 0.62190300226
          0.63709938526 0.63248425722 0.63696086407 0.62219834328 0.62795633078 0.63700443506
          0.64661747217 0.69947004318 0.69192481041 0.69967603683 0.6889128089 0.69346296787
          0.67662268877 0.67457664013 0.6841879487 0.66898036003 0.68425798416 0.67958897352
          0.6840724349 0.66921442747 0.6749920845 0.68414932489 0.6937546134 0.7434232831
          0.73584395647 0.7435234189 0.73289364576 0.73748099804 0.7206274271 0.71865075827
          0.72816354036 0.71304357052 0.72822129726 0.72356307507 0.72805434465 0.71318614483
          0.71892511845 0.72813886404 0.7376203537 0.78452527523 0.77698898315 0.78456145525
          0.77409976721 0.77868586779 0.7619715929 0.76008814573 0.76942616701 0.75448668003
          0.76946753263 0.76485705376 0.76933044195 0.75455862284 0.76022303104 0.76941025257
          0.77872437239 0.82382392883 0.81625545025 0.823820889 0.81338101625 0.81802004576
          0.80119121075 0.79935228825 0.8086836338 0.79369473457 0.80872273445 0.80408424139
          0.80860769749 0.79372489452 0.79942721128 0.80868315697 0.81798261404 0.86174303293
          0.85409492254 0.86172533035 0.85119241476 0.85588592291 0.83888661861 0.837061584
          0.84646546841 0.8313010931 0.84649318457 0.84179013968 0.84642422199 0.83130216599
          0.83707803488 0.84646838903 0.85585951805 0.89859807491 0.89092224836 0.89859211445
          0.88799035549 0.89273172617 0.87558180094 0.87377989292 0.88325375319 0.86792784929
          0.88324517012 0.87849926949 0.8832488656 0.86791092157 0.87374722958 0.88323056698
          0.89272260666 0.93512320518 0.9274469614 0.93512821198 0.92452287674 0.92926365137
          0.91210818291 0.91029697657 0.91977280378 0.90445685387 0.91977500916 0.91503638029
          0.91976118088 0.90447193384 0.91031628847 0.91979122162 0.92926907539 0.1474391073
          0.14293117821 0.14743065834 0.1412396878 0.14408409595 0.13369956613 0.13260728121
          0.13835866749 0.1289704293 0.13836663961 0.13558365405 0.13841739297 0.12909720838
          0.13285598159 0.13859918714 0.14403750002 0.097746215761 0.097957439721 0.098102293909
          0.097439371049 0.09754730016 0.0979481861 0.097680211067 -0.013517573476 -0.0047414894216
          -0.013762951829 -0.041135687381 -0.031430371106 -0.041344977915 -0.0012825941667 -0.027659129351
          -0.0068194670603 -0.033816915005 0.013633712195 0.015754478052 0.0043040080927 -0.011401238851
          -0.0090367300436 -0.021547516808 0.023010414094 -0.0011480562389 0.0043651997112 -0.021487539634
          0.0098747527227 -0.015434872359 0.0040285238065 -0.021794440225 0.02264579758 -0.0014427158749
          0.015126341023 -0.0095354393125 0.0039250892587 -0.021909173578 -0.0072324126959 -0.034120664001
          -0.075964868069 -0.065520823002 -0.076082877815 -0.061505511403 -0.068104684353 -0.044185951352
          -0.04172731936 -0.054989568889 -0.033314023167 -0.054919261485 -0.048417340964 -0.055208902806
          -0.03349846974 -0.042040303349 -0.055276762694 -0.068299882114 -0.11764706671 -0.10643166304
          -0.1176796034 -0.10217205435 -0.10925744474 -0.083715185523 -0.081133268774 -0.095183394849
          -0.072216369212 -0.095129393041 -0.088185451925 -0.095373816788 -0.072323806584 -0.081322401762
          -0.095472931862 -0.10928902775 -0.16549612582 -0.15349012613 -0.16543547809 -0.1489765197
          -0.15654820204 -0.1293605715 -0.12664112449 -0.14152695239 -0.11717992276 -0.14147411287
          -0.13404352963 -0.14169274271 -0.11719483882 -0.12666456401 -0.14175951481 -0.15644139051
          -0.21857818961 -0.20580355823 -0.21844691038 -0.20104286075 -0.20907115936 -0.18028920889
          -0.17743375897 -0.19312781096 -0.16744939983 -0.19308826327 -0.18522189558 -0.19326226413
          -0.16738910973 -0.17735007405 -0.1933504343 -0.20884621143 -0.27570822835 -0.26236468554
          -0.27553778887 -0.25741964579 -0.26581066847 -0.23577584326 -0.23280765116 -0.24913932383
          -0.22241653502 -0.24910873175 -0.24089583755 -0.24925453961 -0.22230760753 -0.23265461624
          -0.24937106669 -0.26549461484 -0.33700034022 -0.32317185402 -0.33676993847 -0.31805831194
          -0.32674723864 -0.29569503665 -0.29265031219 -0.30949369073 -0.28192833066 -0.30947110057
          -0.30096003413 -0.30960327387 -0.281771034 -0.29239684343 -0.3096819222 -0.32635170221
          -0.40201729536 -0.38772258162 -0.40173590183 -0.38244962692 -0.39141064882 -0.35947290063
          -0.35634618998 -0.37364429235 -0.34534972906 -0.37362289429 -0.36483457685 -0.37371218204
          -0.34511631727 -0.3559756577 -0.37376099825 -0.39094045758 -0.46934598684 -0.4545918107
          -0.46906295419 -0.44913285971 -0.45835503936 -0.42544671893 -0.42219924927 -0.44004780054
          -0.41090065241 -0.44003260136 -0.43095818162 -0.44010618329 -0.41067022085 -0.42182427645
          -0.44013759494 -0.45790368319 -0.53822076321 -0.52308022976 -0.53799754381 -0.5174394846
          -0.52689170837 -0.49306997657 -0.48966902494 -0.50808620453 -0.47809991241 -0.50808089972
          -0.49876594543 -0.50811845064 -0.47792452574 -0.48940631747 -0.5081833005 -0.52650702
          -0.60835939646 -0.59290897846 -0.60820400715 -0.58710056543 -0.59670042992 -0.56218731403
          -0.55864983797 -0.57756787539 -0.54683643579 -0.5775565505 -0.56802535057 -0.57757633924
          -0.5467197299 -0.55846989155 -0.57759994268 -0.59645140171 -0.6788199544 -0.66314715147
          -0.67870932817 -0.65723919868 -0.66695570946 -0.63198715448 -0.62833660841 -0.64755213261
          -0.61641597748 -0.64756691456 -0.63793319464 -0.64753693342 -0.61635994911 -0.62827479839
          -0.64761686325 -0.66675168276 -0.74948680401 -0.73361730576 -0.74939340353 -0.72762680054
          -0.73745310307 -0.70203429461 -0.69832533598 -0.71780800819 -0.6862578392 -0.71783792973
          -0.70806050301 -0.71778547764 -0.6862103343 -0.69826829433 -0.71786630154 -0.73727619648
          -0.82018208504 -0.80402642488 -0.8201007247 -0.79790496826 -0.807913661 -0.77181053162
          -0.76803934574 -0.78791236877 -0.75572872162 -0.78791838884 -0.77794378996 -0.7878921032
          -0.755661726 -0.76794743538 -0.78792840242 -0.80776029825 -0.89079624414 -0.87440174818
          -0.89073199034 -0.86818122864 -0.8783249259 -0.84170889854 -0.83787995577 -0.85805016756
          -0.82537311316 -0.85805082321 -0.84794104099 -0.85804533958 -0.82532137632 -0.83779501915
          -0.85806745291 -0.87821233273 -0.96110266447 -0.94463729858 -0.96107429266 -0.9383687973
          -0.94855540991 -0.91178864241 -0.90792137384 -0.92820549011 -0.89538043737 -0.92819929123
          -0.91805261374 -0.92818933725 -0.8953447938 -0.90787553787 -0.92821079493 -0.94848871231
          -1.0311250687 -1.014647603 -1.0310994387 -1.0083619356 -1.0185508728 -0.98172855377
          -0.977840662 -0.99817579985 -0.96527153254 -0.99819207191 -0.98801678419 -0.99816656113
          -0.96526390314 -0.97783333063 -0.99819594622 -1.0185160637 -1.1009781361 -1.0844495296
          -1.1009594202 -1.0781593323 -1.088385582 -1.0514703989 -1.0475885868 -1.0679457188
          -1.0349987745 -1.0679605007 -1.0577777624 -1.0679346323 -1.035004735 -1.0475822687
          -1.0679855347 -1.0883284807 -1.170817256 -1.1542973518 -1.1708128452 -1.1479972601
          -1.1582096815 -1.1212431192 -1.1173347235 -1.1377631426 -1.1047188044 -1.1377751827
          -1.12756598 -1.1377670765 -1.1047261953 -1.1173679829 -1.1377923489 -1.158182621
          0.02589161694 0.03004494682 0.025648882613 0.031802427024 0.029080197215 0.039943501353
          0.041077531874 0.034752275795 0.045247789472 0.03481971845 0.037721075118 0.0344966501
          0.044839516282 0.040384531021 0.034340944141 0.028669282794 0.073049940169 0.07381850481
          0.075752519071 0.070312350988 0.071868024766 0.075414977968 0.073217317462 0.074343174696
          0.066675312817 0.059069152921 0.054498348385 0.066759511828 0.079167120159 0.066782586277
          0.05452811718 0.066787406802 0.059173673391 0.074380211532 0.06677942723 0.079185575247
          0.054822105914 0.049187052995 0.043629158288 0.040180165321 0.049270525575 0.05840453878
          0.049295980483 0.040152903646 0.049307852983 0.0436097458 0.054970595986 0.049269329756
          0.058478254825 0.034439951181 0.030648807064 0.026764011011 0.024167630821 0.030570084229
          0.036866307259 0.030569493771 0.024025212973 0.03060015291 0.026556612924 0.034782029688
          0.030734954402 0.037066549063 0.016789553687 0.014589367434 0.012221538462 0.010394730605
          0.014419836923 0.018237134442 0.014403059147 0.010155145079 0.014459071681 0.011859484948
          0.017295425758 0.014672573656 0.018516318873 0.0048524038866 0.0042225108482 0.0032352234703
          0.0019780322909 0.003852349706 0.0053562493995 0.0037860188168 0.0015454883687 0.0038637060206
          0.0025277659297 0.005644836463 0.0042630541138 0.0058231279254 2.9253490364e-13 -7.6660145246e-12
          9.2877528585e-13 -8.937396179e-13 -2.624549883e-12 3.247562809e-13 -4.4098760559e-13 2.2817263419e-14
          1.6559811756e-15 0 0 0 1.6392648957e-14
        </DataArray>
        <DataArray type="Float32" Name="uz" format="ascii" RangeMin="-0.066175870597" RangeMax="0.09945807606">
          -0.0076305232942 -0.0082730855793 -0.0064461613074 0.0026105721481 0.012219591066 0.01177014783
          0.0092002805322 -0.0097199566662 -0.010185463354 -0.0079380078241 -0.00058571546106 0.0055485325865
          0.0093601234257 0.003517328063 -0.0061447434127 -0.002150350716 0.015070986934 0.010602721013
          -0.0076500480063 -0.0028302946594 0.0060697500594 -0.00882120803 0.0034048305824 0.014035145752
          0.0047634700313 -0.0048323990777 0.0010342532769 0.048093281686 0.039007283747 0.040563810617
          0.049888364971 0.040005348623 0.043152861297 0.044521708041 0.044272515923 0.051562234759
          0.051667440683 0.03217632696 0.023368816823 0.031368389726 0.030491525307 0.022324491292
          0.031526390463 0.026864295825 0.023970410228 0.037471730262 0.036926258355 0.040292851627
          0.038328364491 0.025274671614 0.02615616098 0.034395456314 0.03056159988 0.043074514717
          0.03964253515 0.049632687122 0.047751974314 0.031840853393 0.03409891203 0.045501891524
          0.037464901805 0.037036243826 0.044528428465 0.051104251295 0.034226335585 0.024850878865
          0.031101340428 0.030437689275 0.037970378995 0.04252384603 0.024266624823 0.038910903037
          0.047012384981 0.051686085761 0.028913442045 0.042145222425 0.035391718149 0.032405357808
          0.044465120882 0.050488479435 0.036620102823 0.026424592361 0.030551228672 0.034740567207
          0.038448497653 0.04521850124 0.022690424696 0.04449088499 0.051934964955 0.054234627634
          0.024962764233 0.038219630718 0.032875332981 0.026858501136 0.044394657016 0.049863837659
          0.039309173822 0.0280214753 0.029736831784 0.039651021361 0.038938406855 0.048374179751
          0.020551057532 0.051021441817 0.057779263705 0.057341277599 0.020100550726 0.034010641277
          0.030162785202 0.020915459841 0.044278752059 0.049161523581 0.042106371373 0.029641557485
          0.028816500679 0.044799588621 0.039408680052 0.051661893725 0.018205700442 0.057891298085
          0.063919246197 0.060582283884 0.014874834567 0.029514152557 0.027330029756 0.014871364459
          0.043914273381 0.048079974949 0.044867713004 0.031405754387 0.02792038396 0.049959961325
          0.03976585716 0.054758254439 0.016039196402 0.064619421959 0.069781571627 0.063457280397
          0.0097312703729 0.024679996073 0.024377129972 0.0087709920481 0.043185953051 0.046431612223
          0.047586526722 0.033484693617 0.027108160779 0.055205915123 0.039957851171 0.057530656457
          0.014227002859 0.071113348007 0.075128853321 0.065697230399 0.0047922795638 0.019706588238
          0.02146217972 0.0028223197442 0.042204625905 0.044347010553 0.050236962736 0.035782009363
          0.026418017223 0.060444433242 0.040056478232 0.059992562979 0.012759808451 0.07732668519
          0.07997237891 0.067362360656 0.00017698969168 0.014988929033 0.018869591877 -0.002503850963
          0.041136197746 0.042100273073 0.052747730166 0.038239199668 0.026042800397 0.065364852548
          0.040171764791 0.062081359327 0.011867139488 0.082863293588 0.084069684148 0.068484202027
          -0.0036803588737 0.010792500339 0.01673534885 -0.0069085787982 0.040044926107 0.039779566228
          0.055081453174 0.040868461132 0.026030171663 0.069846622646 0.040326382965 0.063753016293
          0.01169090718 0.087558828294 0.087236955762 0.068976253271 -0.0065426323563 0.0070024156012
          0.015021325089 -0.010490472429 0.038877032697 0.037286102772 0.057241521776 0.043704152107