<VTKFile type="UnstructuredGrid" version="1.0" byte_order="LittleEndian" header_type="UInt64">
  <UnstructuredGrid>
    <Piece NumberOfPoints="791" NumberOfCells="973">
      <PointData>
        <DataArray type="Float32" Name="ux" format="ascii" RangeMin="-0.51880300045" RangeMax="0.51876550913">
          0.08719369024 -0.050067868084 0.13238194585 0.10774863511 0.087207905948 0.13240200281
          -0.049967292696 -0.087039150298 -0.29046872258 -0.22966957092 -0.10732273012 -0.29049095511
          -0.087009318173 -0.22975251079 0.29045784473 0.23003828526 0.29043769836 0.22996856272
          -0.16464704275 -0.28922820091 -0.16467498243 -0.32943481207 -0.32947045565 0.32960957289
          0.28975397348 0.32963907719 -5.3375470088e-07 0.12155638635 -0.060611315072 -0.12156911194
          0.11730910838 -0.05841229111 -0.11728725582 0.15847638249 0.15278074145 0.31748709083
          0.30635279417 -0.060193207115 -0.31504231691 -0.19546310604 -0.057861462235 -0.30285823345
          -0.18826082349 -0.12002972513 -0.11515314877 2.2308772714e-06 2.4544599e-05 0.15781195462
          0.15185199678 -0.39088928699 -0.37663948536 0.12005853653 0.11523550004 0.31501632929
          0.30283746123 0.39090192318 0.37664398551 -0.31744807959 -0.30626481771 0.12549243867
          -0.062598526478 -0.12550519407 0.16371737421 0.32793045044 -0.062246724963 -0.32582816482
          -0.20200929046 -0.12419416755 2.2760573302e-06 0.16314542294 -0.40402504802 0.1242165044
          0.32580432296 0.40402692556 -0.32789984345 0.12916128337 -0.064488425851 -0.12916490436
          0.16873793304 0.33777114749 -0.064273878932 -0.33649200201 -0.20834964514 -0.12836711109
          3.3342544157e-06 0.16839165986 -0.41670414805 0.12838433683 0.33648207784 0.41671124101
          -0.33774700761 0.13257145882 -0.066251546144 -0.13255530596 0.17345744371 0.34697520733
          -0.066201962531 -0.34665980935 -0.21433502436 -0.13236933947 9.2815043899e-06 0.17337723076
          -0.42867848277 0.13239091635 0.34667432308 0.42869672179 -0.34695288539 0.13574308157
          -0.067898370326 -0.13570168614 0.17788998783 0.35558024049 -0.068031042814 -0.35632941127
          -0.21997769177 -0.13619245589 1.7528749595e-05 0.17810483277 -0.43997320533 0.13622142375
          0.3563747704 0.44000819325 -0.35555544496 0.1386987716 -0.06943603605 -0.13862992823
          0.18204092979 0.36361950636 -0.069751389325 -0.36543264985 -0.2252701968 -0.13979876041
          2.6954494388e-05 0.18255139887 -0.45056727529 0.13983771205 0.36551114917 0.45062121749
          -0.36359015107 0.14145939052 -0.070870406926 -0.1413641274 0.18591348827 0.37112277746
          -0.071353815496 -0.37391373515 -0.2302044034 -0.14315672219 3.6165285564e-05 0.18669594824
          -0.46044498682 0.14320591092 0.37402379513 0.46051743627 -0.37108811736 0.14404296875
          -0.07220748812 -0.14392605424 0.18951107562 0.37811672688 -0.072830922902 -0.38172230124
          -0.23477452993 -0.14623816311 4.3634448957e-05 0.19052003324 -0.46959266067 0.14629542828
          0.38185822964 0.46968013048 -0.37807798386 0.14646336436 -0.073451370001 -0.14633208513
          0.19283539057 0.3846206665 -0.074175983667 -0.38881605864 -0.23897410929 -0.14901953936
          4.8385474656e-05 0.19400802255 -0.47799655795 0.14908133447 0.38896936178 0.47809362411
          -0.38458025455 0.14872859418 -0.074604474008 -0.14859242737 0.19588591158 0.39064449072
          -0.075384169817 -0.39516371489 -0.24279730022 -0.15148408711 4.9540471082e-05 0.19714765251
          -0.48564407229 0.15154546499 0.39532357454 0.48574340343 -0.39060607553 0.15084065497
          -0.075666703284 -0.15070945024 0.19866026938 0.39618802071 -0.076452180743 -0.40074634552
          -0.24623823166 -0.15362228453 4.6916498832e-05 0.19993133843 -0.49252328277 0.15367814898
          0.4009013772 0.4926173985 -0.39615529776 0.15279403329 -0.076635837555 -0.15267772973
          0.20115306973 0.40123900771 -0.077378936112 -0.40555846691 -0.24929149449 -0.15543293953
          4.0475038986e-05 0.20235553384 -0.49862343073 0.15547800064 0.40569728613 0.49870461226
          -0.4012158215 0.15457600355 -0.077507324517 -0.15448367596 0.20335613191 0.40577310324
          -0.078165359795 -0.40960791707 -0.2519518435 -0.15692287683 3.0537401472e-05 0.2044210583
          -0.50393420458 0.15695232153 0.40972018242 0.50399547815 -0.40576314926 0.15616720915
          -0.078274220228 -0.15610595047 0.20525893569 0.40975520015 -0.078814305365 -0.41291543841
          -0.25421431661 -0.1581068188 1.7819214918e-05 0.206133008 -0.508446455 0.15811660886
          0.41299304366 0.50848221779 -0.40976139903 0.1575422585 -0.078927703202 -0.15751650929
          0.20684874058 0.41314035654 -0.079330340028 -0.41551333666 -0.25607430935 -0.15900632739
          3.3566641378e-06 0.20750032365 -0.51215195656 0.15899384022 0.415551126 0.51215875149
          -0.41316467524 0.15867057443 -0.079458124936 -0.15868270397 0.20811088383 0.41587567329
          -0.07971996814 -0.41744408011 -0.25752830505 -0.15964920819 -1.2160935512e-05 0.20853467286
          -0.51504445076 0.15961255133 0.41743975878 0.51502019167 -0.41591995955 0.15951670706
          -0.07985509187 -0.15956807137 0.20902782679 0.41790091991 -0.079992204905 -0.41875913739
          -0.25857403874 -0.16006906331 -2.8741795177e-05 0.20924973488 -0.51711928844 0.16000537574
          0.41871169209 0.51706188917 -0.41796845198 0.16004513204 -0.080108806491 -0.16013561189
          0.20958398283 0.41915589571 -0.080155231059 -0.41951191425 -0.25920957327 -0.16030032933
          -4.6085096983e-05 0.20965912938 -0.51837307215 0.16020640731 0.41942253709 0.51828086376
          -0.41925087571 0.16021479666 -0.080206260085 -0.16034185886 0.20975920558 0.41957089305
          -0.080220453441 -0.41976624727 -0.25943338871 -0.16038414836 -6.371881318e-05 0.20978225768
          -0.51880300045 0.160256356 0.41963946819 0.51867556572 -0.41969898343 0.10974887758
          -0.054749459028 -0.10968725383 0.1431504637 0.28638979793 -0.054436374456 -0.28515774012
          -0.17656894028 -0.1087795794 1.3702509023e-05 0.14273959398 -0.3531139195 0.10885805637
          0.28523701429 0.35314255953 -0.28627055883 -0.05121543631 -0.2682056129 -0.10281231254
          0.00010461109196 0.13397465646 0.10292974114 0.26827788353 0.11732749641 -0.058396484703
          -0.11726554483 0.12157763541 -0.060585480183 -0.12154375762 0.1527968049 0.15849782526
          0.30636787415 0.31750559807 -0.05784227699 -0.30283486843 -0.18823815882 -0.060168169439
          -0.31501284242 -0.19543600082 -0.11513353139 -0.12000388652 4.1906412662e-05 2.6532452466e-05
          0.1518676579 0.1578335017 -0.37661376595 -0.3908585906 0.11525141448 0.12008037418
          0.30285063386 0.31503534317 0.37665739655 0.39091962576 -0.30623933673 -0.31741920114
          0.12551221251 -0.062575981021 -0.12548156083 0.16373668611 0.32794734836 -0.062224030495
          -0.32580131292 -0.2019841969 -0.12417072803 2.4067037884e-05 0.16316470504 -0.40399673581
          0.12423609197 0.32582107186 0.4040427506 -0.32787278295 0.12917199731 -0.06447467953
          -0.12915042043 0.16874830425 0.33777907491 -0.064260177314 -0.33647423983 -0.2083337903
          -0.12835262716 1.6160338419e-05 0.16840204597 -0.41668513417 0.12839511037 0.33649006486
          0.41671815515 -0.33772930503 0.13256876171 -0.066251389682 -0.13255429268 0.17345426977
          0.34696960449 -0.066201776266 -0.34665563703 -0.21433268487 -0.13236829638 8.5644405772e-06
          0.17337405682 -0.42867308855 0.13238821924 0.34666869044 0.42869004607 -0.34694871306
          0.13572387397 -0.067914582789 -0.13571694493 0.17787019908 0.35555788875 -0.068047247827
          -0.3563413918 -0.21999166906 -0.13620771468 3.3683991774e-07 0.17808502913 -0.43998396397
          0.13620215654 0.35635235906 0.43998464942 -0.35556745529 0.13866217434 -0.069469682872
          -0.13866251707 0.18200363219 0.36357960105 -0.069785051048 -0.36546209455 -0.22530162334
          -0.13983139396 -7.7208715084e-06 0.18251407146 -0.45059546828 0.13980102539 0.36547115445
          0.45057997108 -0.36361956596 0.141406551 -0.070920281112 -0.14141283929 0.18585981429
          0.37106639147 -0.071403741837 -0.3739592731 -0.23025205731 -0.14320552349 -1.4809857021e-05
          0.18664222956 -0.46048933268 0.14315293729 0.37396728992 0.46045961976 -0.37113365531
          0.14397741854 -0.072269894183 -0.1439871937 0.18944461644 0.37804734707 -0.072893381119
          -0.38178011775 -0.23483458161 -0.14629937708 -1.9946201064e-05 0.19045352936 -0.46964925528
          0.14622975886 0.38178876042 0.46960920095 -0.37813580036 0.14638987184 -0.073521494865
          -0.14640086889 0.19276091456 0.38454309106 -0.074246145785 -0.38888132572 -0.23904174566
          -0.14908836782 -2.2974887543e-05 0.19393353164 -0.47806054354 0.14900778234 0.38889175653
          0.47801440954 -0.38464552164 0.14865267277 -0.074676893651 -0.14866344631 0.19580896199
          0.39056429267 -0.075456604362 -0.39523100853 -0.24286708236 -0.15155510604 -2.419629709e-05
          0.19707067311 -0.48571002483 0.15146948397 0.39524334669 0.48566150665 -0.39067339897
          0.15076807141 -0.07573556155 -0.15077680349 0.19858658314 0.3961108923 -0.076521039009
          -0.40080967546 -0.2463042587 -0.15368962288 -2.3319553293e-05 0.19985760748 -0.49258521199
          0.15360544622 0.40082409978 0.49253839254 -0.3962187171 0.15273085237 -0.076695151627
          -0.15273551643 0.20108875632 0.40117111802 -0.077438242733 -0.40561202168 -0.24934785068
          -0.15549069643 -2.0252111426e-05 0.20229117572 -0.49867549539 0.15541468561 0.40562924743
          0.49863478541 -0.40126946568 0.1545279026 -0.077551603317 -0.15452650189 0.20330694318
          0.40572044253 -0.078209675848 -0.40964654088 -0.25199320912 -0.15696570277 -1.5136368347e-05
          0.20437180996 -0.50397133827 0.15690402687 0.4096673131 0.5039408803 -0.40580186248
          0.15613849461 -0.078299075365 -0.1561294049 0.20522925258 0.40972205997 -0.078839197755
          -0.41293472052 -0.25423628092 -0.15813028812 -8.4089351731e-06 0.20610325038 -0.50846421719
          0.15808776021 0.41295969486 0.50844728947 -0.40978074074 0.15753574669 -0.07893037051
          -0.1575178504 0.2068413347 0.4131295383 -0.079332977533 -0.41551041603 -0.25607407093
          -0.15900757909 -6.3059911781e-07 0.20749290287 -0.51214748621 0.15898728371 0.41554018855
          0.51214623451 -0.41316184402 0.15868791938 -0.07943688333 -0.15866011381 0.20812734962
          0.41588869691 -0.079698674381 -0.41741719842 -0.25750410557 -0.15962652862 7.7731174315e-06
          0.20855113864 -0.51501601934 0.15962991118 0.41745272279 0.51503151655 -0.41589316726
          0.15955930948 -0.079808570445 -0.15952022374 0.20906956494 0.4179392457 -0.079945631325
          -0.41870698333 -0.25852456689 -0.16002111137 1.6479827536e-05 0.20929151773 -0.51706558466
          0.16004802287 0.41875001788 0.51709848642 -0.41791635752 0.16011407971 -0.080035917461
          -0.16006137431 0.20965211093 0.41922056675 -0.080082304776 -0.41943341494 -0.25913372636
          -0.16022604704 2.549857345e-05 0.20972730219 -0.5182929635 0.16027542949 0.41948726773
          0.51834392548 -0.4191724062 0.16031067073 -0.080106392503 -0.16024063528 0.20985424519
          0.41966244578 -0.080120608211 -0.41966074705 -0.2593305409 -0.16028295457 3.4812001104e-05
          0.20987728238 -0.5186958909 0.16035221517 0.41973102093 0.51876550913 -0.41959348321
          0.10973853618 -0.05473427847 -0.10969048738 0.14314806461 0.28637582064 -0.054431609809
          -0.28514885902 -0.17656880617 -0.10877145827 1.9418754164e-05 0.14274044335 -0.35311058164
          0.10886178911 0.28523555398 0.35313174129 -0.28627461195 -0.051217071712 -0.26819592714
          -0.10281077772 8.1540907559e-05 0.13396844268 0.10292927921 0.26827982068 -0.17844489217
          -0.22122626007 -0.17846597731 -0.067935340106 -0.084704332054 -0.067944511771 0.00016099758795
          0.068218126893 0.084915518761 0.17869973183 0.17871713638 0.22142152488 0.068212933838
          -0.13386613131 -0.16511559486 -0.13386102021 -0.051163684577 -0.063750423491 -0.051161143929
          7.4059709732e-05 0.051321774721 0.063926175237 0.13402882218 0.13402479887 0.16529271007
          0.051323361695 -0.094736859202 -0.11703854799 -0.094737946987 -0.036187283695 -0.045087005943
          -0.036188077182 5.2079594752e-05 0.036289650947 0.045184113085 0.094837479293 0.094838403165
          0.11713549495 0.036289121956 -0.059864982963 -0.073871985078 -0.059864711016 -0.022886395454
          -0.028534989804 -0.022886270657 2.2808892027e-05 0.022933460772 0.02858229354 0.05991133675
          0.059911001474 0.073918938637 0.022933432832 -0.028465339914 -0.035055831075 -0.028465423733
          -0.010906138457 -0.013631121255 -0.010906237178 6.189684882e-06 0.010919868015 0.013642993756
          0.028477560729 0.028477460146 0.035067409277 0.010919678956 0 0
          0 0 0 0 0 0
          0 0 0 0 0
        </DataArray>
        <DataArray type="Float32" Name="uy" format="ascii" RangeMin="-1.5077908039" RangeMax="1.5078268051">
          -0.27129507065 -0.25505775213 -0.24232193828 1.4084883333e-05 0.27129721642 0.24234098196
          0.25507119298 -0.27086830139 -0.26381254196 -0.16831809282 -3.5029263472e-06 0.26383411884
          0.27088773251 0.16832177341 -0.26344907284 -0.16852054 0.26346096396 0.16853496432
          -0.22050125897 4.2076189857e-06 0.22050611675 -0.22045765817 0.22046680748 0.22045947611
          4.1609605432e-06 -0.22043921053 6.2874987634e-06 1.1549116373 0.96865046024 1.1549406052
          1.275650382 1.0949136019 1.2757264376 0.89732187986 1.0258185863 1.0115929842
          1.1367143393 0.59714359045 0.55241829157 0.7822868228 0.73631465435 0.69295281172
          0.91459518671 0.41192698479 0.55832642317 0.78267407417 0.91505777836 0.66771554947
          0.80415922403 0.78112512827 0.91344845295 0.41189342737 0.55826216936 0.55241423845
          0.69294470549 0.78115874529 0.91345864534 1.0116019249 1.1366734505 1.0019847155
          0.80929344893 1.0020184517 0.7355581522 0.85397028923 0.42498484254 0.37893727422
          0.61659270525 0.23339299858 0.61692047119 0.49804529548 0.61567741632 0.23336111009
          0.37893584371 0.61569684744 0.85396975279 0.82176238298 0.62330269814 0.82178080082
          0.54741156101 0.66964864731 0.22699545324 0.17978999019 0.42481961846 0.029172856361
          0.42501813173 0.30247935653 0.42425128818 0.029154602438 0.17979004979 0.42426529527
          0.66965073347 0.62466204166 0.42073491216 0.62466686964 0.34282293916 0.46876004338
          0.013029618189 -0.03519301489 0.21680603921 -0.19074642658 0.216852054 0.090847559273
          0.21667391062 -0.19075098634 -0.035193074495 0.21667703986 0.46875998378 0.42299470305
          0.21396057308 0.42298331857 0.13416881859 0.26361420751 -0.20449593663 -0.25362679362
          0.0049365065061 -0.4139289856 0.0048132520169 -0.12445159256 0.0052825589664 -0.4139174521
          -0.25362581015 0.0052747512236 0.26361358166 0.23037716746 0.016567040235 0.23034982383
          -0.06497682631 0.067773886025 -0.41197341681 -0.46193307638 -0.19721779227 -0.62673127651
          -0.19751061499 -0.32982939482 -0.19639183581 -0.62670397758 -0.46193146706 -0.196410954
          0.067772231996 0.060444865376 -0.15782141685 0.060402810574 -0.24100124836 -0.10517145693
          -0.59576505423 -0.64650207758 -0.37604919076 -0.81548446417 -0.37649804354 -0.51166540384
          -0.37478202581 -0.8154425025 -0.646499753 -0.3748114109 -0.10517397523 -0.074266880751
          -0.29668241739 -0.074321173131 -0.38139200211 -0.24272714555 -0.74333316088 -0.79482090473
          -0.51904827356 -0.96762251854 -0.51962709427 -0.65743744373 -0.51741367579 -0.96756851673
          -0.79481810331 -0.51745170355 -0.24273039401 -0.16332779825 -0.38959428668 -0.16339093447
          -0.47573494911 -0.33449456096 -0.84424215555 -0.89647382498 -0.61580306292 -1.072686553
          -0.61647576094 -0.75672292709 -0.61390298605 -1.0726237297 -0.89647060633 -0.6139472127
          -0.33449831605 -0.19921240211 -0.4290356636 -0.1992802918 -0.51651322842 -0.37296828628
          -0.89095777273 -0.94393926859 -0.65879678726 -1.1231244802 -0.65952062607 -0.80199694633
          -0.65675240755 -1.1230568886 -0.94393581152 -0.65680003166 -0.37297224998 -0.17784133554
          -0.410926193 -0.17790970206 -0.49964731932 -0.35407561064 -0.87938833237 -0.93313056231
          -0.64394849539 -1.114833951 -0.64467769861 -0.78917300701 -0.64188927412 -1.1147658825
          -0.93312710524 -0.64193725586 -0.35407963395 -0.0988220945 -0.33486658335 -0.098886713386
          -0.42473483086 -0.27741622925 -0.80912423134 -0.86363458633 -0.57085186243 -1.0474019051
          -0.57154172659 -0.71784234047 -0.56890434027 -1.0473376513 -0.86363130808 -0.5689496994
          -0.27742004395 0.034633945674 -0.2040553391 0.034576829523 -0.29496729374 -0.14617887139
          -0.68335437775 -0.73862832785 -0.442692101 -0.92402112484 -0.44330310822 -0.59119051695
          -0.44096839428 -0.92396426201 -0.73862534761 -0.44100853801 -0.14618222415 0.21612092853
          -0.024880187586 0.21607421339 -0.11672162265 0.03326703608 -0.50845849514 -0.56447130442
          -0.26583811641 -0.75108236074 -0.26633965969 -0.41558951139 -0.26442483068 -0.75103580952
          -0.56446886063 -0.26445770264 0.03326427564 0.43675714731 0.19380004704 0.43672257662
          0.10115741193 0.25208839774 -0.29328867793 -0.34998849034 -0.049124661833 -0.53745484352
          -0.049498673528 -0.19988004863 -0.048073418438 -0.53742033243 -0.34998655319 -0.048097871244
          0.25208631158 0.68617677689 0.4416462183 0.68615454435 0.34834712744 0.49997758865
          -0.048178568482 -0.10548059642 0.19713681936 -0.29349499941 0.196893543 0.045618716627
          0.19781722128 -0.29347288609 -0.10547930002 0.19780145586 0.49997615814 0.95374470949
          0.70805245638 0.95373368263 0.61426091194 0.76636624336 0.21627011895 0.15848882496
          0.46237233281 -0.02983100526 0.46224439144 0.31032261252 0.46272236109 -0.029820071533
          0.15848968923 0.46271428466 0.76636528969 1.2299343348 0.98352319002 1.2299313545
          0.88942074776 1.0417947769 0.49056494236 0.43246459961 0.73711550236 0.2440148592
          0.73707252741 0.58475577831 0.73722660542 0.24401794374 0.43246486783 0.73722434044
          1.0417945385 1.5078268051 1.2611712217 1.5078268051 1.1669632196 1.3194240332
          0.76782083511 0.70960861444 1.0145179033 0.52112609148 1.0145043135 0.86205589771
          1.014541626 0.52112609148 0.70960944891 1.0145403147 1.3194233179 1.0614430904
          0.91593772173 1.0615981817 0.86067092419 0.94996273518 0.62870973349 0.59438085556
          0.77170646191 0.48577839136 0.77183717489 0.68317991495 0.77136224508 0.48577478528
          0.59432888031 0.77135890722 0.9498334527 0.18283435702 0.17408579588 0.14379395545
          0.2203695029 0.19752494991 0.14386042953 0.17406456172 -1.275624752 -1.0948910713
          -1.2757002115 -1.1548900604 -0.96863168478 -1.1549187899 -1.0257959366 -0.89730459452
          -1.1366907358 -1.0115737915 -0.73629826307 -0.69293701649 -0.91457635164 -0.59713113308
          -0.55240702629 -0.78227120638 -0.55831301212 -0.41191780567 -0.91503804922 -0.78265845776
          -0.80414092541 -0.66770166159 -0.91342866421 -0.78110975027 -0.55824846029 -0.41188365221
          -0.69292831421 -0.55240190029 -0.91343843937 -0.78114300966 -1.1366499662 -1.0115823746
          -1.0019676685 -0.80927920341 -1.0020010471 -0.73554515839 -0.85395568609 -0.4249766469
          -0.37892991304 -0.61658143997 -0.23338784277 -0.61690926552 -0.49803584814 -0.61566609144
          -0.23335570097 -0.3789280653 -0.61568570137 -0.8539545536 -0.82174962759 -0.62329268456
          -0.82176786661 -0.54740279913 -0.66963815689 -0.22699129581 -0.17978665233 -0.42481252551
          -0.02917165868 -0.42501106858 -0.30247402191 -0.42424419522 -0.029153186828 -0.1797863543
          -0.42425823212 -0.66963994503 -0.62465316057 -0.42072880268 -0.62465786934 -0.34281796217
          -0.46875336766 -0.01302929502 0.035192552954 -0.21680282056 0.19074378908 -0.21684882045
          -0.090846084058 -0.21667070687 0.19074849784 0.035192858428 -0.21667379141 -0.46875312924
          -0.42298910022 -0.21395798028 -0.42297768593 -0.13416737318 -0.26361095905 0.20449249446
          0.25362256169 -0.0049369265325 0.41392245889 -0.0048136706464 0.12444934994 -0.0052830218337
          0.4139110148 0.25362172723 -0.0052751293406 -0.2636102736 -0.23037520051 -0.016568217427
          -0.23034794629 0.064974524081 -0.067774228752 0.41196611524 0.46192505956 0.19721353054
          0.6267208457 0.19750636816 0.32982325554 0.19638757408 0.62669348717 0.46192339063
          0.19640678167 -0.067772731185 -0.060445960611 0.15781699121 -0.060404092073 0.24099567533
          0.10516800731 0.59575426579 0.64649057388 0.37604156137 0.81547045708 0.37649041414
          0.51165574789 0.37477436662 0.8154283762 0.64648807049 0.37480387092 0.10517019778
          0.074263699353 0.29667565227 0.074317730963 0.38138401508 0.24272145331 0.74331957102
          0.79480671883 0.51903814077 0.96760565042 0.51961690187 0.65742510557 0.51740348339
          0.9675514102 0.79480355978 0.51744157076 0.24272425473 0.16332283616 0.389585495
          0.16338565946 0.47572490573 0.33448696136 0.84422624111 0.89645719528 0.61579066515
          1.0726671219 0.61646342278 0.75670826435 0.61389064789 1.0726040602 0.896453619
          0.61393493414 0.33449020982 0.19920609891 0.4290253818 0.19927370548 0.51650160551
          0.37295919657 0.89094001055 0.94392079115 0.65878278017 1.1231030226 0.65950661898
          0.80198049545 0.65673840046 1.1230351925 0.94391691685 0.65678608418 0.37296271324
          0.17783455551 0.41091519594 0.17790262401 0.49963489175 0.35406589508 0.87936931849
          0.93311077356 0.64393347502 1.1148109436 0.64466267824 0.78915542364 0.64187431335
          1.1147426367 0.93310683966 0.64192229509 0.35406941175 0.098815828562 0.33485591412
          0.098880149424 0.42472270131 0.27740690112 0.80910515785 0.86361473799 0.57083702087
          1.0473786592 0.57152688503 0.7178247571 0.56888955832 1.0473140478 0.86361098289
          0.56893491745 0.27741023898 -0.034638483077 0.20404656231 -0.034581594169 0.29495704174
          0.1461713165 0.68333733082 0.73861044645 0.4426792562 0.92399996519 0.44329023361
          0.59117501974 0.44095557928 0.92394286394 0.7386071682 0.44099572301 0.14617432654
          -0.2161218673 0.024875102565 -0.21607528627 0.11671502888 -0.033270981163 0.5084452033
          0.56445723772 0.26582896709 0.75106495619 0.26633048058 0.41557776928 0.26441574097
          0.75101828575 0.56445449591 0.26444864273 -0.033268440515 -0.43675273657 -0.19379971921
          -0.43671825528 -0.10115860403 -0.25208699703 0.29328086972 0.34997978806 0.049120940268
          0.53744292259 0.049494925886 0.19987374544 0.048069760203 0.5374083519 0.3499777019
          0.048094194382 -0.25208503008 -0.6861653924 -0.44163891673 -0.68614321947 -0.34834134579
          -0.499969244 0.048177812248 0.1054789573 -0.19713354111 0.29349023104 -0.19689029455
          -0.045617949218 -0.19781389832 0.29346802831 0.10547754914 -0.1977981329 -0.4999679029
          -0.95372503996 -0.70803689957 -0.95371413231 -0.61424684525 -0.76634967327 -0.21626265347
          -0.15848226845 -0.46236079931 0.029834421352 -0.46223288774 -0.31031364202 -0.46271085739
          0.029823437333 -0.15848322213 -0.46270278096 -0.7663487792 -1.2299064398 -0.98349934816
          -1.2299033403 -0.88939845562 -1.0417699814 -0.49054923654 -0.43244981766 -0.73709577322
          -0.24400316179 -0.73705273867 -0.58473849297 -0.73720687628 -0.24400626123 -0.43245011568
          -0.7372046113 -1.041769743 -1.5077906847 -1.2611391544 -1.5077908039 -1.1669328213
          -1.3193911314 -0.76779699326 -0.70958572626 -1.0144900084 -0.52110630274 -1.0144764185
          -0.86203050613 -1.014513731 -0.52110624313 -0.70958656073 -1.0145124197 -1.3193902969
          -1.0614173412 -0.91591477394 -1.0615739822 -0.86065453291 -0.94994211197 -0.62869173288
          -0.59436404705 -0.77168279886 -0.48576360941 -0.77181833982 -0.68316507339 -0.77134162188
          -0.48576083779 -0.59431529045 -0.7713431716 -0.94980913401 -0.18282526731 -0.17407846451
          -0.14378598332 -0.22035525739 -0.19750587642 -0.14384765923 -0.17404466867 0.12960450351
          5.9041062741e-06 -0.12959137559 -0.20931385458 8.0202089521e-06 0.20932304859 5.3610215218e-06
          -0.20921286941 3.2762047795e-06 -0.12955513597 0.12956532836 5.9374201555e-06 0.20922593772
          0.097193546593 5.0456337704e-06 -0.097183793783 -0.15745964646 4.5262604544e-06 0.15747031569
          5.2132691053e-06 -0.15748128295 5.7372549236e-06 -0.097188018262 0.09719851613 5.0303774515e-06
          0.15749123693 0.068821363151 3.44467594e-06 -0.068814337254 -0.1114333719 3.652215355e-06
          0.11144034564 3.5011412365e-06 -0.11142855883 3.3818737393e-06 -0.068813808262 0.068820811808
          3.5800599107e-06 0.11143568903 0.043443530798 1.4957986423e-06 -0.04344060272 -0.070380210876
          1.44436558e-06 0.070383131504 1.4873036207e-06 -0.070380680263 1.5415099597e-06 -0.043439671397
          0.04344272241 1.538924721e-06 0.070383645594 0.020618950948 2.3699088558e-07 -0.020618516952
          -0.033463455737 2.247319344e-07 0.033463846892 2.2929752674e-07 -0.033462617546 2.379564279e-07
          -0.020617460832 0.020618041977 3.2325519328e-07 0.033463057131 0 0
          0 0 0 0 0 0
          0 0 0 0 0
        </DataArray>
        <DataArray type="Float32" Name="uz" format="ascii" RangeMin="-0.15606306493" RangeMax="0.15608996153">
          0.00020059321832 -0.00067988660885 0.0016568279825 8.3636714407e-06 -0.00020388029225 -0.001653219806
          0.00068844266934 -0.00034948257962 -0.0027159196325 -0.00088457303355 7.6699134297e-06 0.0027273332234
          0.00034439735464 0.000894604309 0.0025814848486 0.0010299447458 -0.0025751071516 -0.0010180911049
          -0.0023869345896 3.8140881315e-06 0.0023846663535 -0.0039535486139 0.0039602159522 -0.0039515946992
          6.8424851634e-06 0.0039583528414 8.2763217506e-06 -0.025845019147 0.012979594991 0.025957060978
          -0.020456310362 0.010275029577 0.02056693472 -0.033805899322 -0.026567786932 -0.067818328738
          -0.053017251194 0.013000583276 0.067987166345 0.041911620647 0.0099273165688 0.051601521671
          0.032650012523 0.026047011837 0.019446987659 4.8653309932e-05 4.9507078074e-05 -0.033846333623
          -0.026018671691 0.083956100047 0.064876765013 -0.02593450807 -0.019395297393 -0.067932352424
          -0.05146067217 -0.083826348186 -0.064832121134 0.067894928157 0.05318364501 -0.030959963799
          0.015519215725 0.03107413277 -0.040451645851 -0.081181108952 0.01552295126 0.081278063357
          0.050118673593 0.031088097021 4.9764981668e-05 -0.040459852666 0.10048938543 -0.030977927148
          -0.081215262413 -0.10034251213 0.081243343651 -0.034651037306 0.017345316708 0.034767653793
          -0.045232865959 -0.090844474733 0.017346097156 0.090877264738 0.056020163 0.034763928503
          4.9877769925e-05 -0.045229330659 0.1123887524 -0.034639600664 -0.090827636421 -0.11222372204
          0.090888254344 -0.03638375178 0.018203800544 0.036500088871 -0.047481693327 -0.095389142632
          0.018207294866 0.095431290567 0.058801703155 0.036509055644 5.0366375945e-05 -0.047479305416
          0.11801940203 -0.036377552897 -0.095387384295 -0.11784309894 0.095424473286 -0.035872742534
          0.017944715917 0.035989537835 -0.046803668141 -0.094053119421 0.017949571833 0.094090551138
          0.057964581996 0.03599883616 5.0824335631e-05 -0.046801064163 0.11636590958 -0.03586333245
          -0.094047062099 -0.11618503928 0.094084747136 -0.033003550023 0.016513142735 0.033119704574
          -0.043054301292 -0.086538955569 0.016518024728 0.086579985917 0.053330805153 0.033129662275
          5.1299368351e-05 -0.043051142246 0.10707895458 -0.032993543893 -0.086532786489 -0.1069002524
          0.086573883891 -0.027868755162 0.013954374939 0.027984030545 -0.036352876574 -0.07309024781
          0.01395883318 0.073139846325 0.045048743486 0.027992986143 5.1772898587e-05 -0.036350186914
          0.090456925333 -0.027859877795 -0.073084793985 -0.09028659761 0.073134258389 -0.020745553076
          0.010406258516 0.020859615877 -0.027060169727 -0.054432757199 0.010409494862 0.054495017976
          0.033563796431 0.020866153762 5.2245439292e-05 -0.027058178559 0.067396938801 -0.020739043131
          -0.054428756237 -0.067240230739 0.05449096486 -0.012066896074 0.0060838810168 0.012179387733
          -0.015739971772 -0.031700816005 0.0060854461044 0.031778734177 0.019572736695 0.012182543986
          5.2618208429e-05 -0.015739006922 0.039300810546 -0.012063749135 -0.031698867679 -0.039161816239
          0.031776770949 -0.0023818770424 0.0012603241485 0.0024925579783 -0.003107448807 -0.0063328347169
          0.0012599292677 0.0064280955121 0.0039594927803 0.0024917607661 5.2924780903e-05 -0.0031076867599
          0.0079464046285 -0.0023826656397 -0.0063333120197 -0.0078275725245 0.0064285872504 0.0076927654445
          -0.0037577420007 -0.0075841066428 0.010034148581 0.020055625588 -0.0037601687945 -0.019942723215
          -0.012283103541 -0.0075889527798 5.3155585192e-05 0.010032648221 -0.024669399485 0.0076879039407
          0.020052619278 0.024767573923 -0.019939724356 0.017527012154 -0.0086568053812 -0.017420032993